Created on Mon Oct 06 08:37:28 2025 

         350 atoms
         375 bonds
         709 angles
         879 dihedrals

           4 atom types
           4 bond types
           9 angle types
           2 dihedral types
           0.000000  15.238206 xlo xhi
           0.000000  14.502811 ylo yhi
           0.000000  17.008496 zlo zhi
          -6.262741  -0.448186  -0.641994 xy xz yz

Masses

    1    28.085500000 # Si3
    2    12.010700000 # C_3
    3     1.007940000 # H_
    4    15.999400000 # O_2

Bond Coeffs

    1      226.661263        1.866919  # Si3 C_3
    2      172.712984        1.470529  # Si3 H_
    3      365.702108        1.692864  # Si3 O_2
    4      331.069389        1.109401  # C_3 H_

Angle Coeffs

    1                      fourier       58.020602        0.343737        0.374972        0.281246 # C_3 Si3 H_
    2                      fourier      157.882480        0.343737        0.374972        0.281246 # C_3 Si3 O_2
    3                      fourier       83.380072        0.343737        0.374972        0.281246 # H_ Si3 O_2
    4                      fourier      221.735285        0.343737        0.374972        0.281246 # O_2 Si3 O_2
    5                      fourier      114.246973        0.343737        0.374972        0.281246 # C_3 Si3 C_3
    6                      fourier       32.417871        0.343737        0.374972        0.281246 # H_ Si3 H_
    7                      fourier       90.420412        0.343737        0.374972        0.281246 # Si3 C_3 H_
    8                      fourier       75.498766        0.343737        0.374972        0.281246 # H_ C_3 H_
    9              cosine/periodic       88.853997              -1               3 # Si3 O_2 Si3

Dihedral Coeffs

    1        0.089508               1               3 # H_ Si3 C_3 H_
    2        0.333333               1               3 # C_3 Si3 O_2 Si3

Pair Coeffs

    1        0.402000        3.826410 # Si3 Si3
    2        0.105000        3.430851 # C_3 C_3
    3        0.044000        2.571134 # H_ H_
    4        0.060000        3.118146 # O_2 O_2

Atoms

       1      444        1     0.00000   -4.03532   13.36996    2.59606
       2      444        1     0.00000   -0.90824    2.74771    3.49975
       3      444        1     0.00000    1.05503    2.34567   16.64616
       4      444        1     0.00000    2.78702   -0.01612    7.39082
       5      444        1     0.00000   13.81533    1.49277    9.72226
       6      444        1     0.00000    2.52739   -0.16080   12.87365
       7      444        1     0.00000   -1.59340    2.09680   14.75967
       8      444        1     0.00000    1.09453    2.04739   11.17572
       9      444        1     0.00000    0.44234    4.97099    1.82464
      10      444        1     0.00000   11.99662    6.39850    5.20353
      11      444        1     0.00000   -0.05115    7.49018    0.02024
      12      444        1     0.00000   -0.58608    6.34480    6.58741
      13      444        1     0.00000   -0.20292    4.19388   13.23496
      14      444        1     0.00000   -1.15781    6.58386   11.35411
      15      444        1     0.00000   -1.72514    9.64680    1.34025
      16      444        1     0.00000   -3.06628   11.72901   16.88772
      17      444        1     0.00000   -1.75919    9.00269    7.72026
      18      444        1     0.00000   -4.93963   12.42343    8.95790
      19      444        1     0.00000   -2.77021    8.97435   12.31347
      20      444        1     0.00000    9.46147   11.35133   15.44489
      21      444        1     0.00000   -2.74092   11.94373   11.12119
      22      444        1     0.00000    4.28180    1.06414    3.25840
      23      444        1     0.00000    6.17853    2.96487    0.20664
      24      444        1     0.00000    1.13967   13.53893    7.13261
      25      444        1     0.00000    4.25812    1.90650    9.02122
      26      444        1     0.00000    6.69334    1.39150    5.28670
      27      444        1     0.00000    0.59677   13.71130   12.98163
      28      444        1     0.00000    3.64232    1.84989   14.98136
      29      444        1     0.00000    6.70064    1.24905   10.75796
      30      444        1     0.00000    1.53433    6.50225    4.28871
      31      444        1     0.00000    5.37056    8.69095    0.22909
      32      444        1     0.00000    5.36351    3.65978    6.80597
      33      444        1     0.00000    1.55887    6.57578    9.74476
      34      444        1     0.00000    4.21268    6.22656    5.81534
      35      444        1     0.00000    2.33436    7.24664   15.52791
      36      444        1     0.00000    3.96844    7.43055   11.36424
      37      444        1     0.00000    3.81605   10.63414    1.85319
      38      444        1     0.00000   -0.60183   11.29747    3.72010
      39      444        1     0.00000    2.71824   12.94060    0.13488
      40      444        1     0.00000    2.84610    8.26183    7.52623
      41      444        1     0.00000   -0.36838   11.52778    9.09341
      42      444        1     0.00000    1.65523   10.97184    5.65004
      43      444        1     0.00000    2.84524    9.36553   13.42324
      44      444        1     0.00000   -0.46783   12.37393   15.47555
      45      444        1     0.00000    1.56097   11.22362   11.42398
      46      444        1     0.00000   13.45447    0.86489    1.25910
      47      444        1     0.00000    9.51072    2.04912    3.97058
      48      444        1     0.00000   11.46143    2.48808   16.93349
      49      444        1     0.00000   12.91101   -0.28395    7.27307
      50      444        1     0.00000    9.25275    0.53152    9.02216
      51      444        1     0.00000   12.09649    2.01665    5.45207
      52      444        1     0.00000    8.54989    2.21000   15.87083
      53      444        1     0.00000   10.38623    4.65161    3.15463
      54      444        1     0.00000    6.96476    6.35893    4.49021
      55      444        1     0.00000    9.08236    6.48397    1.08434
      56      444        1     0.00000   10.37364    3.27878    7.80685
      57      444        1     0.00000    9.27681    5.92465    6.70801
      58      444        1     0.00000    9.43437    4.17509   13.60028
      59      444        1     0.00000    6.88852    7.79972   14.78649
      60      444        1     0.00000    8.70120    8.26071   10.43308
      61      444        1     0.00000    8.33594    8.68340    2.95227
      62      444        1     0.00000    4.99915   12.37972    4.34390
      63      444        1     0.00000    7.12648   11.36046    6.28003
      64      444        1     0.00000    8.14327    9.93036   13.02128
      65      444        1     0.00000    4.47926   11.67360   14.92584
      66      444        1     0.00000    7.23884   12.12862   11.03513
      67      444        2     0.00000   -4.41198   11.76129    3.41735
      68      444        2     0.00000    1.87224    1.45982    0.57494
      69      444        2     0.00000    1.40702    0.83518    6.48895
      70      444        2     0.00000   -0.98647    3.01906    8.74784
      71      444        2     0.00000   12.36640    1.61785   10.85149
      72      444        2     0.00000   -2.66813    5.83802   10.59607
      73      444        2     0.00000   -3.10354    8.42603    1.28382
      74      444        2     0.00000   -3.19108    9.58568    6.70055
      75      444        2     0.00000   -6.58295   12.99238   15.10977
      76      444        2     0.00000    9.16619   11.20140   -0.06319
      77      444        2     0.00000    3.48150    2.68895    3.62820
      78      444        2     0.00000    5.34990    4.50247    0.83481
      79      444        2     0.00000    3.91529    3.35867   10.10565
      80      444        2     0.00000    4.46071    2.98129   13.78096
      81      444        2     0.00000    6.98587    2.95300   11.39923
      82      444        2     0.00000    6.28059    4.71154    8.01876
      83      444        2     0.00000    2.83376    5.84934   14.44045
      84      444        2     0.00000    5.36715    6.24293   11.55081
      85      444        2     0.00000    2.97910    9.16740    2.56129
      86      444        2     0.00000    0.07949   12.53406    2.52719
      87      444        2     0.00000   -1.54087   12.06323    5.12680
      88      444        2     0.00000    2.99248   14.31898    1.32375
      89      444        2     0.00000    3.86549    9.74564    7.95972
      90      444        2     0.00000   -3.13135    8.69373   14.10911
      91      444        2     0.00000   -0.54603   10.69510   14.73861
      92      444        2     0.00000    8.60041   -0.25289   13.25285
      93      444        2     0.00000   10.09532    3.51581   11.99080
      94      444        2     0.00000   10.84978    5.01028   14.48139
      95      444        2     0.00000    8.62409    7.31824   15.18743
      96      444        2     0.00000   10.02660    8.74031    9.21100
      97      444        2     0.00000    7.02370    8.66821    9.72520
      98      444        2     0.00000    8.86362    6.45002   10.82827
      99      444        2     0.00000    7.51367   10.32083    2.72929
     100      444        2     0.00000    9.73193    8.70184    4.16052
     101      444        2     0.00000    6.61610   13.61904    1.28994
     102      444        2     0.00000    5.30840   13.06486   14.02065
     103      444        2     0.00000    5.49769   12.01143   10.39459
     104      444        3     0.00000    0.29954    2.66558    4.33819
     105      444        3     0.00000    0.92958   -0.44509    2.38866
     106      444        3     0.00000    4.02282   -0.10291    6.59321
     107      444        3     0.00000   13.76543    0.83051   14.02180
     108      444        3     0.00000   -1.47176    6.57300   15.95052
     109      444        3     0.00000   -0.36954    5.62519    7.84553
     110      444        3     0.00000   -2.88945    7.75449    4.77553
     111      444        3     0.00000   -2.16578    8.31068    8.96817
     112      444        3     0.00000    9.54197   11.30824    8.34683
     113      444        3     0.00000   -3.85173    8.47994   11.43677
     114      444        3     0.00000   -5.01278   13.69368   13.19254
     115      444        3     0.00000    4.75028    0.94730    1.85826
     116      444        3     0.00000    6.56506    2.01151    1.27611
     117      444        3     0.00000    1.59148    2.70560    9.97380
     118      444        3     0.00000    5.84227    7.72498    1.23497
     119      444        3     0.00000    1.75722    5.30307    9.02209
     120      444        3     0.00000    0.59584    4.49295   14.42241
     121      444        3     0.00000    4.16421    8.41097   10.27526
     122      444        3     0.00000    1.02809    7.80455    3.84372
     123      444        3     0.00000    2.03733    8.43840    6.29527
     124      444        3     0.00000    3.03577   10.61320    5.25882
     125      444        3     0.00000    2.87448   11.83588   11.15599
     126      444        3     0.00000   14.46229    1.04310    0.19431
     127      444        3     0.00000    9.49647    1.85924    2.52406
     128      444        3     0.00000   11.48499   -0.62046    7.47409
     129      444        3     0.00000   10.49065    0.04490    9.63686
     130      444        3     0.00000    8.48334    0.74440   15.78065
     131      444        3     0.00000   12.46781    4.40318    0.41082
     132      444        3     0.00000   11.11327    3.83955    2.18005
     133      444        3     0.00000    6.65876    5.12867    3.74287
     134      444        3     0.00000    7.89594    6.01676    0.33398
     135      444        3     0.00000   11.08835    3.84559    8.96326
     136      444        3     0.00000    8.79880    6.78330    7.79908
     137      444        3     0.00000    6.12515    6.67111   14.20097
     138      444        3     0.00000   10.33696    6.34525    0.31214
     139      444        3     0.00000    8.28853    5.11064   13.42652
     140      444        3     0.00000    6.03610   13.35639    3.93386
     141      444        3     0.00000    3.88324   13.04278    5.04853
     142      444        3     0.00000    1.26055   10.37748    6.94096
     143      444        3     0.00000    8.29458   10.94754    5.47071
     144      444        3     0.00000    6.91676   10.45245    7.42819
     145      444        3     0.00000    5.45824   10.87848   15.70197
     146      444        3     0.00000   -5.78488   13.55091    9.38770
     147      444        3     0.00000   13.88784   -0.98775   11.38714
     148      444        3     0.00000    8.17442   11.56790   10.02338
     149      444        3     0.00000   -3.55343   11.08720    3.48761
     150      444        3     0.00000   -5.17038   11.27206    2.79308
     151      444        3     0.00000   -4.84326   11.90051    4.41949
     152      444        3     0.00000    2.93419    1.47721    0.85616
     153      444        3     0.00000    1.71973    0.55437   -0.01886
     154      444        3     0.00000    1.26263    1.37936    1.48042
     155      444        3     0.00000    0.48016    0.80942    7.07620
     156      444        3     0.00000    1.21125    0.35855    5.51870
     157      444        3     0.00000    1.66557    1.88785    6.30423
     158      444        3     0.00000   -1.82784    3.36911    8.13690
     159      444        3     0.00000   -0.14654    2.81112    8.06965
     160      444        3     0.00000   -0.67511    3.84672    9.39912
     161      444        3     0.00000   12.13100    0.63039   11.27112
     162      444        3     0.00000   11.47049    2.01763   10.37139
     163      444        3     0.00000   12.63055    2.27482   11.68992
     164      444        3     0.00000   -2.46968    4.81346   10.25866
     165      444        3     0.00000   -3.02244    6.41686    9.73418
     166      444        3     0.00000   11.76028    5.79234   11.33346
     167      444        3     0.00000   -2.90392    7.56769    1.94089
     168      444        3     0.00000   -3.20967    8.04957    0.25533
     169      444        3     0.00000   -4.06552    8.86346    1.57194
     170      444        3     0.00000   -3.99897    8.84816    6.68184
     171      444        3     0.00000   -2.87851    9.77678    5.66732
     172      444        3     0.00000   -3.58247   10.52538    7.11224
     173      444        3     0.00000    7.71948   13.07671   15.67588
     174      444        3     0.00000    8.41884   13.10825   14.04662
     175      444        3     0.00000   -5.94235   13.83271   15.39567
     176      444        3     0.00000    9.71101   10.31257    0.27977
     177      444        3     0.00000    7.67865   10.26195   16.74786
     178      444        3     0.00000    9.14993   11.93204    0.75693
     179      444        3     0.00000    3.07090    2.71102    4.64573
     180      444        3     0.00000    2.65914    2.88931    2.93089
     181      444        3     0.00000    4.19806    3.51613    3.54816
     182      444        3     0.00000    5.21604    5.23192    0.02226
     183      444        3     0.00000    5.95151    4.98308    1.61785
     184      444        3     0.00000    4.35578    4.28539    1.24885
     185      444        3     0.00000    3.65855    3.09091   11.13403
     186      444        3     0.00000    3.13163    4.00210    9.69532
     187      444        3     0.00000    4.83800    3.94532   10.14040
     188      444        3     0.00000    3.73326    3.45960   13.11520
     189      444        3     0.00000    5.15697    2.37879   13.18686
     190      444        3     0.00000    5.03503    3.76619   14.29127
     191      444        3     0.00000    7.54398    3.57111   10.68664
     192      444        3     0.00000    7.56898    2.87349   12.32311
     193      444        3     0.00000    6.06091    3.47231   11.65400
     194      444        3     0.00000    6.80880    5.52183    7.50541
     195      444        3     0.00000    7.00672    4.14389    8.61059
     196      444        3     0.00000    5.55106    5.19144    8.68231
     197      444        3     0.00000    2.70280    4.89331   14.96055
     198      444        3     0.00000    3.89975    5.97659   14.21097
     199      444        3     0.00000    2.28321    5.81875   13.49354
     200      444        3     0.00000    5.72298    5.87886   10.58032
     201      444        3     0.00000    5.06622    5.38471   12.16526
     202      444        3     0.00000    6.20178    6.74136   12.05351
     203      444        3     0.00000    2.65881    8.49244    1.75676
     204      444        3     0.00000    2.09346    9.46265    3.13183
     205      444        3     0.00000    3.65919    8.61656    3.22595
     206      444        3     0.00000   -0.69279   13.16128    2.06461
     207      444        3     0.00000    0.61318   12.01303    1.72429
     208      444        3     0.00000    0.78579   13.20057    3.04061
     209      444        3     0.00000   -1.35362   11.52627    6.06307
     210      444        3     0.00000   -2.61994   12.15790    5.00745
     211      444        3     0.00000   -1.15197   13.08230    5.24212
     212      444        3     0.00000   10.02007    0.51664    0.97006
     213      444        3     0.00000    3.30324   13.94432    2.30759
     214      444        3     0.00000    8.31510    0.36613    1.46015
     215      444        3     0.00000    4.25766   10.22392    7.05225
     216      444        3     0.00000    4.72400    9.44344    8.57068
     217      444        3     0.00000    3.27859   10.48124    8.52554
     218      444        3     0.00000   -2.23746    8.31509   14.61941
     219      444        3     0.00000   -3.92424    7.94139   14.20750
     220      444        3     0.00000   -3.47627    9.60036   14.61353
     221      444        3     0.00000    0.35888   10.43936   14.18475
     222      444        3     0.00000   -1.38523   10.64560   14.03818
     223      444        3     0.00000   -0.68474    9.94800   15.52969
     224      444        3     0.00000    2.92436   13.97600   12.36613
     225      444        3     0.00000    2.77499   13.77212   14.13374
     226      444        3     0.00000    8.68194    0.83192   13.38006
     227      444        3     0.00000    9.94327    2.43013   11.95121
     228      444        3     0.00000   11.17172    3.70454   11.94605
     229      444        3     0.00000    9.63694    3.96301   11.10485
     230      444        3     0.00000   11.09903    5.92440   13.92162
     231      444        3     0.00000   11.74007    4.37314   14.44744
     232      444        3     0.00000   10.65324    5.30303   15.51879
     233      444        3     0.00000    9.23143    7.34782   14.27436
     234      444        3     0.00000    8.65500    6.28944   15.55822
     235      444        3     0.00000    9.08053    7.98330   15.92825
     236      444        3     0.00000    9.57726    9.01473    8.24825
     237      444        3     0.00000   10.72231    7.91117    9.03415
     238      444        3     0.00000   10.60608    9.59564    9.57299
     239      444        3     0.00000    6.70617    7.91861    8.98472
     240      444        3     0.00000    7.05309    9.64099    9.21837
     241      444        3     0.00000    6.25653    8.71808   10.50627
     242      444        3     0.00000    8.80737    5.85066    9.90821
     243      444        3     0.00000    8.10668    6.07890   11.52603
     244      444        3     0.00000    9.85047    6.27786   11.27512
     245      444        3     0.00000    6.57143   10.28536    3.28633
     246      444        3     0.00000    7.27455   10.55738    1.69163
     247      444        3     0.00000    8.11821   11.13197    3.15052
     248      444        3     0.00000   10.62690    9.20472    3.78531
     249      444        3     0.00000    9.98512    7.65940    4.36508
     250      444        3     0.00000    9.44593    9.17792    5.10704
     251      444        3     0.00000    7.31298   12.97681    1.84151
     252      444        3     0.00000    6.55070   13.23754    0.26127
     253      444        3     0.00000    5.62701   13.51649    1.74480
     254      444        3     0.00000    4.79883   13.31204   13.08448
     255      444        3     0.00000    6.34072   12.79378   13.78629
     256      444        3     0.00000   11.57579   -0.53316   14.64474
     257      444        3     0.00000    5.43013   12.30431    9.33806
     258      444        3     0.00000    4.81562   12.65498   10.96199
     259      444        3     0.00000    5.13203   10.98004   10.48115
     260      444        4     0.00000   -0.35793    2.28368   15.81072
     261      444        4     0.00000   -0.16455    1.10759   10.72955
     262      444        4     0.00000    2.23797    1.11612   11.87535
     263      444        4     0.00000   -0.73893    3.98208    2.41294
     264      444        4     0.00000    1.37778    4.22988    0.71138
     265      444        4     0.00000   -0.21975    6.28791    1.13299
     266      444        4     0.00000   -1.91752    5.70847    5.86089
     267      444        4     0.00000   -1.54809    3.35504   13.69840
     268      444        4     0.00000    0.64718    3.24892   12.20565
     269      444        4     0.00000   -0.65139    5.60448   12.57346
     270      444        4     0.00000   -0.36545    8.92340    0.74567
     271      444        4     0.00000   -2.06196   10.92066    0.36937
     272      444        4     0.00000   -3.34121   13.11458    1.13062
     273      444        4     0.00000   -0.81595    7.94830    6.85067
     274      444        4     0.00000   -3.89772   12.94002    7.79093
     275      444        4     0.00000   -1.42232    8.08988   11.92687
     276      444        4     0.00000   -4.14706   11.52849   15.67705
     277      444        4     0.00000   -4.13909   11.84267   10.27898
     278      444        4     0.00000   -2.52352   10.56863   11.96407
     279      444        4     0.00000   -2.78264   13.22572   12.14036
     280      444        4     0.00000    3.20458   -0.16631    3.50196
     281      444        4     0.00000    3.08823    0.77861    8.82732
     282      444        4     0.00000    5.60518    0.84285    4.21799
     283      444        4     0.00000    6.69352    0.39102    6.57472
     284      444        4     0.00000    3.18810    0.44485   14.24589
     285      444        4     0.00000    4.70909    1.52184   16.19085
     286      444        4     0.00000    2.29860    2.60017   15.60414
     287      444        4     0.00000    5.63885    1.18571    9.52362
     288      444        4     0.00000    6.14850    0.29530   11.97143
     289      444        4     0.00000    1.37571    5.40240    3.08733
     290      444        4     0.00000    0.70455    6.04664    5.62903
     291      444        4     0.00000    4.47917    2.48766    7.50063
     292      444        4     0.00000    6.36056    2.92400    5.73339
     293      444        4     0.00000    0.02268    6.66341   10.23825
     294      444        4     0.00000    3.13165    6.55004    4.64356
     295      444        4     0.00000    4.29595    4.61309    6.00325
     296      444        4     0.00000    3.55266    7.45862   16.59521
     297      444        4     0.00000    0.99990    6.90776   16.41026
     298      444        4     0.00000    2.56937    6.61635   11.03513
     299      444        4     0.00000    5.07565   10.14987    0.90694
     300      444        4     0.00000   -1.46322   10.15206    2.87920
     301      444        4     0.00000    2.79503   11.49061    0.90548
     302      444        4     0.00000    1.83939    7.83913    8.75184
     303      444        4     0.00000    3.81470    6.94925    7.22036
     304      444        4     0.00000   -0.89755   10.33124    8.13979
     305      444        4     0.00000    0.15127   12.75373    8.15323
     306      444        4     0.00000   -1.52759   12.13499   10.05275
     307      444        4     0.00000    0.67379   10.49548    4.43204
     308      444        4     0.00000    1.54986   12.60806    5.85961
     309      444        4     0.00000    2.08891    8.64504   14.68039
     310      444        4     0.00000    3.85751    8.26812   12.77209
     311      444        4     0.00000    0.79396   12.48359   16.50033
     312      444        4     0.00000   -0.28963   13.56743   14.34840
     313      444        4     0.00000   -1.84412   12.65274   16.34093
     314      444        4     0.00000    0.85124   10.90799    9.98810
     315      444        4     0.00000    1.77094    9.83318   12.27411
     316      444        4     0.00000    0.60228   12.23348   12.26222
     317      444        4     0.00000   14.13807    1.33816    2.68733
     318      444        4     0.00000    8.18401    1.40010    4.63271
     319      444        4     0.00000   12.18285    2.11908   15.49668
     320      444        4     0.00000   12.18778    1.88064    0.94470
     321      444        4     0.00000   13.57693    0.25173    8.65110
     322      444        4     0.00000    2.51690   13.93813    7.91353
     323      444        4     0.00000    8.13380    0.66887   10.19416
     324      444        4     0.00000   13.00757    2.94517    4.46327
     325      444        4     0.00000   10.84500    1.34739    4.63436
     326      444        4     0.00000   13.02987    0.83551    6.07850
     327      444        4     0.00000    9.83963    2.64156   16.79686
     328      444        4     0.00000    7.14788    2.77763   16.48305
     329      444        4     0.00000    9.63042    3.67353    4.23930
     330      444        4     0.00000   11.48680    5.59691    3.88494
     331      444        4     0.00000    5.68385    6.79229    5.41251
     332      444        4     0.00000    9.22877    5.55348    2.44035
     333      444        4     0.00000    9.51770    1.97066    8.27450
     334      444        4     0.00000   11.49674    2.91894    6.67522
     335      444        4     0.00000   10.79941    6.39055    6.33087
     336      444        4     0.00000    8.26583    6.09616    5.44867
     337      444        4     0.00000    9.30936    4.37380    7.23160
     338      444        4     0.00000    8.79089    2.86971   14.40717
     339      444        4     0.00000    6.07725    8.29522   16.11897
     340      444        4     0.00000    7.20140    7.62026    3.50712
     341      444        4     0.00000    8.87776    8.05835    1.51025
     342      444        4     0.00000    4.42226   11.61257    3.02600
     343      444        4     0.00000    5.73873   11.32510    5.39419
     344      444        4     0.00000    7.46353   12.88233    6.81059
     345      444        4     0.00000    6.94992    9.03723   13.70301
     346      444        4     0.00000    8.90701    9.09791   11.86140
     347      444        4     0.00000    9.25815   10.37088   14.12736
     348      444        4     0.00000    3.67975   10.67415   13.88844
     349      444        4     0.00000    3.39098   12.34095   15.95462
     350      444        4     0.00000    7.40022   11.24062   12.41719

Bonds

       1        1        1       67
       2        2        1      105
       3        3        1      272
       4        3        1      280
       5        2        2      104
       6        3        2      263
       7        3        2      317
       8        3        2      324
       9        1        3       68
      10        3        3      260
      11        3        3      264
      12        3        3      286
      13        1        4       69
      14        2        4      106
      15        3        4      274
      16        3        4      281
      17        1        5       70
      18        1        5       71
      19        3        5      261
      20        3        5      321
      21        2        6      114
      22        3        6      262
      23        3        6      279
      24        3        6      284
      25        2        7      107
      26        3        7      260
      27        3        7      267
      28        3        7      319
      29        2        8      117
      30        3        8      261
      31        3        8      262
      32        3        8      268
      33        3        9      263
      34        3        9      264
      35        3        9      265
      36        3        9      289
      37        2       10      110
      38        3       10      266
      39        3       10      330
      40        3       10      335
      41        2       11      108
      42        3       11      265
      43        3       11      270
      44        3       11      297
      45        2       12      109
      46        3       12      266
      47        3       12      273
      48        3       12      290
      49        2       13      120
      50        3       13      267
      51        3       13      268
      52        3       13      269
      53        1       14       72
      54        3       14      269
      55        3       14      275
      56        3       14      293
      57        1       15       73
      58        3       15      270
      59        3       15      271
      60        3       15      300
      61        3       16      271
      62        3       16      272
      63        3       16      276
      64        3       16      313
      65        1       17       74
      66        2       17      111
      67        3       17      273
      68        3       17      304
      69        2       18      112
      70        2       18      146
      71        3       18      274
      72        3       18      277
      73        1       19       90
      74        2       19      113