Created on Mon Oct 06 08:41:50 2025 

         350 atoms
         375 bonds
         709 angles
         879 dihedrals

           4 atom types
           4 bond types
           9 angle types
           2 dihedral types
           0.000000  15.678164 xlo xhi
           0.000000  13.544330 ylo yhi
           0.000000  17.638255 zlo zhi
          -7.040851  -1.014405   0.675028 xy xz yz

Masses

    1    28.085500000 # Si3
    2    12.010700000 # C_3
    3     1.007940000 # H_
    4    15.999400000 # O_2

Bond Coeffs

    1      226.661263        1.866919  # Si3 C_3
    2      365.702108        1.692864  # Si3 O_2
    3      172.712984        1.470529  # Si3 H_
    4      331.069389        1.109401  # C_3 H_

Angle Coeffs

    1                      fourier      157.882480        0.343737        0.374972        0.281246 # C_3 Si3 O_2
    2                      fourier      221.735285        0.343737        0.374972        0.281246 # O_2 Si3 O_2
    3                      fourier       32.417871        0.343737        0.374972        0.281246 # H_ Si3 H_
    4                      fourier       83.380072        0.343737        0.374972        0.281246 # H_ Si3 O_2
    5                      fourier      114.246973        0.343737        0.374972        0.281246 # C_3 Si3 C_3
    6                      fourier       58.020602        0.343737        0.374972        0.281246 # C_3 Si3 H_
    7                      fourier       90.420412        0.343737        0.374972        0.281246 # Si3 C_3 H_
    8                      fourier       75.498766        0.343737        0.374972        0.281246 # H_ C_3 H_
    9              cosine/periodic       88.853997              -1               3 # Si3 O_2 Si3

Dihedral Coeffs

    1        0.089508               1               3 # O_2 Si3 C_3 H_
    2        0.333333               1               3 # C_3 Si3 O_2 Si3

Pair Coeffs

    1        0.402000        3.826410 # Si3 Si3
    2        0.105000        3.430851 # C_3 C_3
    3        0.044000        2.571134 # H_ H_
    4        0.060000        3.118146 # O_2 O_2

Atoms

       1      444        1     0.00000   14.07668    2.11609    3.28860
       2      444        1     0.00000    0.57355    1.72077   16.25219
       3      444        1     0.00000    1.37359    0.29258    7.52295
       4      444        1     0.00000   13.58023    2.86471    8.97912
       5      444        1     0.00000    0.46933    2.44638    5.64103
       6      444        1     0.00000    2.59550    0.86388   13.14484
       7      444        1     0.00000   -1.24956    3.07622   14.21178
       8      444        1     0.00000    0.01363    2.73123    0.83254
       9      444        1     0.00000   11.20572    5.90750    4.09370
      10      444        1     0.00000   -2.69427    5.54783   17.05533
      11      444        1     0.00000    0.13425    4.64913    7.97538
      12      444        1     0.00000   -3.90883    7.46765   10.02266
      13      444        1     0.00000   -1.11679    7.10180    6.45156
      14      444        1     0.00000   -0.16340    5.92306   14.11043
      15      444        1     0.00000   -1.19858    7.11014   11.48557
      16      444        1     0.00000   -2.18596    7.74773    2.80965
      17      444        1     0.00000   -4.74587   11.38811    3.16397
      18      444        1     0.00000   -2.26774    9.74815    0.42051
      19      444        1     0.00000   -2.70506    9.42678    8.02474
      20      444        1     0.00000   -6.88634   12.64815   10.05790
      21      444        1     0.00000   -4.11614   11.49978    6.20173
      22      444        1     0.00000   -2.39159   10.89201   14.46025
      23      444        1     0.00000   -3.57903   11.79036   11.72602
      24      444        1     0.00000    3.14750    2.26176    3.83091
      25      444        1     0.00000   -0.16150   13.54854    7.36295
      26      444        1     0.00000    3.28823    2.09693    8.90277
      27      444        1     0.00000    5.66699    1.61601    5.10086
      28      444        1     0.00000    8.05027    1.05065   14.52195
      29      444        1     0.00000    3.09380    3.63390   16.33946
      30      444        1     0.00000    6.51795    2.98545   12.45063
      31      444        1     0.00000    4.74949    4.49147    2.49562
      32      444        1     0.00000    1.63299    7.28098    5.16737
      33      444        1     0.00000    3.46497    6.84706    0.79153
      34      444        1     0.00000    5.36253    3.80499    7.28936
      35      444        1     0.00000    1.39202    6.69626    9.77415
      36      444        1     0.00000    4.31592    6.51994    6.39572
      37      444        1     0.00000    4.61841    4.99832   13.94094
      38      444        1     0.00000   -0.33955    7.48543   16.86293
      39      444        1     0.00000    3.91492    7.21323   11.80341
      40      444        1     0.00000    2.50186    9.19652    2.73188
      41      444        1     0.00000    2.12984    9.39975    8.54233
      42      444        1     0.00000   -1.47969   11.82431    9.42045
      43      444        1     0.00000    1.12532   11.02241    6.11211
      44      444        1     0.00000    3.11182    9.69443   13.67663
      45      444        1     0.00000    1.44606   12.09381   12.55897
      46      444        1     0.00000    4.92064   13.63552    2.59572
      47      444        1     0.00000    8.02200    1.71099    3.11878
      48      444        1     0.00000    9.66075    3.15944   15.71731
      49      444        1     0.00000   11.17739    2.88310   10.91147
      50      444        1     0.00000    9.48037    4.23273    1.96718
      51      444        1     0.00000    6.32758    6.49933    4.01999
      52      444        1     0.00000    8.99135    6.74780    0.15853
      53      444        1     0.00000    9.89702    5.76239    8.27740
      54      444        1     0.00000    6.78844    7.86246   10.55426
      55      444        1     0.00000    8.85988    7.18480    5.59087
      56      444        1     0.00000   10.67106    5.01507   13.23502
      57      444        1     0.00000    9.45609    7.70202   12.27092
      58      444        1     0.00000    9.80642    9.42402    1.17566
      59      444        1     0.00000    3.64530   11.39604    4.35395
      60      444        1     0.00000    6.37442   11.42033    0.91673
      61      444        1     0.00000    7.24917   10.34899    8.88843
      62      444        1     0.00000    2.50693   12.10929    9.80075
      63      444        1     0.00000    5.88885   11.69077    6.43011
      64      444        1     0.00000    9.14962   10.16857   14.22552
      65      444        1     0.00000    3.92876   11.48044   15.95701
      66      444        1     0.00000    7.84102   12.55030   12.83603
      67      444        2     0.00000   12.93847    3.44723    2.78076
      68      444        2     0.00000   -6.11038   13.49275   16.63224
      69      444        2     0.00000    2.35577    2.49647   12.28503
      70      444        2     0.00000   -1.06567    3.02867   12.37461
      71      444        2     0.00000   11.95736    4.89969    5.46518
      72      444        2     0.00000   12.36512    5.42619    0.05533
      73      444        2     0.00000   -2.13193    9.17051    4.00050
      74      444        2     0.00000   -2.83534    9.08402   14.53295
      75      444        2     0.00000   -0.94705    8.92975   11.54177
      76      444        2     0.00000    3.03866    1.41894    2.18836
      77      444        2     0.00000    4.09802    0.82290   14.26328
      78      444        2     0.00000    4.60038    2.80906   17.05217
      79      444        2     0.00000    6.07329    1.66940   11.23119
      80      444        2     0.00000    7.40102    4.41520   11.69570
      81      444        2     0.00000    1.04866    4.05509    1.54435
      82      444        2     0.00000    1.35264    5.69960    4.29178
      83      444        2     0.00000    3.83254    7.65604   17.22196
      84      444        2     0.00000    1.02985   10.00040    1.94968
      85      444        2     0.00000    5.30567    7.47416    7.60114
      86      444        2     0.00000    1.68197    8.83992   14.42347
      87      444        2     0.00000    8.08486    0.35449    1.85043
      88      444        2     0.00000    8.01310    3.65388   16.42240
      89      444        2     0.00000    9.79648    2.35332    9.78761
      90      444        2     0.00000   11.70762    1.45466   11.98056
      91      444        2     0.00000    8.59686    7.00191   16.09281
      92      444        2     0.00000    6.88903    4.46230    8.05426
      93      444        2     0.00000    6.48803    7.99519    2.96220
      94      444        2     0.00000    8.40820    8.95483    5.50543
      95      444        2     0.00000    8.89957    9.59642    8.58630
      96      444        2     0.00000   -6.23545   12.40566    2.75794
      97      444        2     0.00000    7.35210   11.95736    5.33630
      98      444        2     0.00000    5.25128   13.29268    7.13000
      99      444        2     0.00000    7.50896    9.87368   15.05238
     100      444        2     0.00000    4.70238   13.03156   15.29159
     101      444        2     0.00000    2.14047   11.62659   16.47332
     102      444        2     0.00000    4.28935   11.74674    9.98413
     103      444        2     0.00000    6.25865   11.64225   12.56886
     104      444        3     0.00000   13.90207    1.48417    9.41481
     105      444        3     0.00000   13.08054    2.89305    7.57789
     106      444        3     0.00000    1.36720    0.51939   13.89492
     107      444        3     0.00000   13.00592    3.02535   14.64739
     108      444        3     0.00000   -2.75414    5.50425   15.57888
     109      444        3     0.00000   -1.87982    6.67374    5.27514
     110      444        3     0.00000    1.19742    5.87264   13.54385
     111      444        3     0.00000   -0.93868    6.93749    2.81903
     112      444        3     0.00000   -3.45668   12.05272    2.84323
     113      444        3     0.00000   -4.49984   10.49342   17.21240
     114      444        3     0.00000   -2.08323   10.41906   17.17520
     115      444        3     0.00000   -2.16974   10.96028    1.28371
     116      444        3     0.00000   -2.90007   12.30774    6.02962
     117      444        3     0.00000   -0.99628   11.15414   14.92057
     118      444        3     0.00000   -3.32588   11.69014   15.30383
     119      444        3     0.00000   -5.77774   11.69871   10.22435
     120      444        3     0.00000   -4.52768   10.67019   11.66531
     121      444        3     0.00000    7.65321    1.15720    7.85745
     122      444        3     0.00000    3.60842    1.21531   10.03380
     123      444        3     0.00000    7.10800    0.65590   15.59058
     124      444        3     0.00000    2.46470    4.57760   17.29408
     125      444        3     0.00000    2.28596    3.12474    9.26264
     126      444        3     0.00000    5.16940    3.53884    1.46697
     127      444        3     0.00000    5.71218    5.72894   14.62626
     128      444        3     0.00000    3.55034    9.06889    8.70111
     129      444        3     0.00000   -0.10690   10.54509    5.47405
     130      444        3     0.00000   -0.59514    8.93520   16.89727
     131      444        3     0.00000   -0.35316   11.69927   10.33711
     132      444        3     0.00000    0.15017   11.40347   12.55140
     133      444        3     0.00000   11.14442    1.17078    2.00864
     134      444        3     0.00000    8.96008    1.49611    4.25696
     135      444        3     0.00000   10.76946    3.09922   16.70286
     136      444        3     0.00000   10.45995    3.49147    1.15592
     137      444        3     0.00000    7.67166    7.42260    0.07632
     138      444        3     0.00000    8.99492    5.63209    9.43989
     139      444        3     0.00000   10.26589    4.45060    7.70529
     140      444        3     0.00000    7.30946    7.00164    9.49097
     141      444        3     0.00000   -3.65738    5.52161   13.52598
     142      444        3     0.00000   10.00381   10.14740   -0.10144
     143      444        3     0.00000    7.63308   12.00502    0.38363
     144      444        3     0.00000    8.43470    9.66185    1.68158
     145      444        3     0.00000    6.58773   10.60048    2.12657
     146      444        3     0.00000    2.27706   13.09340    8.72914
     147      444        3     0.00000   -5.45890   10.43297   15.21737
     148      444        3     0.00000    7.69023   13.56232   13.89147
     149      444        3     0.00000   12.61729    3.25924    1.75039
     150      444        3     0.00000   -2.28123    4.44189    2.82418
     151      444        3     0.00000   12.04869    3.43475    3.41411
     152      444        3     0.00000   -4.43341   12.74879   -0.13026
     153      444        3     0.00000   -5.62670   12.97011   15.79829
     154      444        3     0.00000   -7.04529   12.96726   16.87307
     155      444        3     0.00000    1.59281    2.40307   11.50268
     156      444        3     0.00000    3.28383    2.85965   11.82991
     157      444        3     0.00000    2.02567    3.25353   13.00994
     158      444        3     0.00000   -0.10152    3.45930   12.07877
     159      444        3     0.00000   -1.84513    3.65613   11.92348
     160      444        3     0.00000   -1.12537    2.02058   11.94897
     161      444        3     0.00000   -2.73022    4.49393    5.23505
     162      444        3     0.00000   11.29021    4.05217    5.68179
     163      444        3     0.00000   12.05419    5.48820    6.38586
     164      444        3     0.00000   11.10654    7.04877   17.19543
     165      444        3     0.00000   12.34043    5.60877    1.13236
     166      444        3     0.00000   11.59431    4.68886   -0.19236
     167      444        3     0.00000   -2.17752   10.12582    3.45969
     168      444        3     0.00000   -1.19054    9.16410    4.56213
     169      444        3     0.00000   -2.96730    9.13081    4.70853
     170      444        3     0.00000   -2.00210    8.44035   14.23333
     171      444        3     0.00000   -3.69112    8.87819   13.87729
     172      444        3     0.00000   -3.13039    8.79607   15.55158
     173      444        3     0.00000   -0.62315    9.27723   10.55256
     174      444        3     0.00000   -0.16673    9.21678   12.25578
     175      444        3     0.00000   -1.85946    9.46504   11.81820
     176      444        3     0.00000    3.93219    0.78772    2.08184
     177      444        3     0.00000    3.02917    2.14830    1.37153
     178      444        3     0.00000    2.15421    0.78957    2.07539
     179      444        3     0.00000   -2.14190   13.76620   13.81458
     180      444        3     0.00000   -3.17642   13.94031   15.24534
     181      444        3     0.00000    4.48225    1.83666   14.39945
     182      444        3     0.00000    5.32039    3.55661   17.41072
     183      444        3     0.00000    5.10402    2.16715   16.31990
     184      444        3     0.00000    5.32776    1.51015    0.27214
     185      444        3     0.00000    6.97491    1.06642   11.04382
     186      444        3     0.00000    5.75281    2.08572   10.27021
     187      444        3     0.00000    5.29101    0.99085   11.59313
     188      444        3     0.00000    6.69987    4.88649   10.99302
     189      444        3     0.00000    8.31476    4.15392   11.15540
     190      444        3     0.00000    7.65719    5.15697   12.46171
     191      444        3     0.00000    1.82470    4.39029    0.85482
     192      444        3     0.00000    1.52207    3.70807    2.46378
     193      444        3     0.00000    0.43808    4.92623    1.79882
     194      444        3     0.00000    1.69968    4.86735    4.90784
     195      444        3     0.00000    1.93354    5.68274    3.36573
     196      444        3     0.00000    0.29587    5.54552    4.04055
     197      444        3     0.00000    3.79029    8.55798   16.60252
     198      444        3     0.00000    3.81186    6.77931   16.55788
     199      444        3     0.00000    5.81436    6.98762    0.10068
     200      444        3     0.00000    0.47904   10.59907    2.68791
     201      444        3     0.00000    0.35227    9.22536    1.56367
     202      444        3     0.00000    1.30783   10.65003    1.10941
     203      444        3     0.00000    5.25526    8.54521    7.37969
     204      444        3     0.00000    6.35487    7.15859    7.54787
     205      444        3     0.00000    4.94316    7.30787    8.62198
     206      444        3     0.00000    2.02749    7.98089   15.00906
     207      444        3     0.00000    1.02329    8.45469   13.63890
     208      444        3     0.00000    1.08417    9.48794   15.07505
     209      444        3     0.00000    0.89165   12.92892    2.34467
     210      444        3     0.00000    9.04856    0.32032    1.32424
     211      444        3     0.00000    7.28761    0.48713    1.10479
     212      444        3     0.00000    7.99050    4.60995   16.94521
     213      444        3     0.00000    7.68497    2.87759   17.12886
     214      444        3     0.00000    7.27671    3.70341   15.60986
     215      444        3     0.00000    9.02654    1.79896   10.33976
     216      444        3     0.00000   10.19080    1.68100    9.01080
     217      444        3     0.00000    9.32272    3.19768    9.27569
     218      444        3     0.00000   12.46619    0.84668   11.46982
     219      444        3     0.00000   10.83717    0.81553   12.18534
     220      444        3     0.00000   12.12066    1.77836   12.94367
     221      444        3     0.00000    7.75324    6.93076   15.39100
     222      444        3     0.00000    9.14163    6.05767   16.04571
     223      444        3     0.00000    9.28027    7.77447   15.72119
     224      444        3     0.00000    7.47454    4.98643    7.29098
     225      444        3     0.00000    7.47407    3.61073    8.42705
     226      444        3     0.00000    6.69383    5.14334    8.88714
     227      444        3     0.00000    5.69240    8.02769    2.20921
     228      444        3     0.00000    7.45192    8.04033    2.44479
     229      444        3     0.00000    6.37054    8.89922    3.57199
     230      444        3     0.00000    8.34824    9.22437    4.44406
     231      444        3     0.00000    9.19379    9.57498    5.94198
     232      444        3     0.00000    7.45270    9.18852    5.98466
     233      444        3     0.00000    9.53919   10.21476    7.95133
     234      444        3     0.00000    8.83675    8.59454    8.15235
     235      444        3     0.00000    9.40676    9.51245    9.55796
     236      444        3     0.00000    8.53570   11.80996    2.91934
     237      444        3     0.00000   -6.24057   12.75461    1.71767
     238      444        3     0.00000   -6.30752   13.28461    3.41020
     239      444        3     0.00000    7.33698   11.21523    4.52933
     240      444        3     0.00000    8.30920   11.86515    5.85911
     241      444        3     0.00000    7.29491   12.95246    4.88680
     242      444        3     0.00000   12.27001    0.49095    6.31823
     243      444        3     0.00000    5.92461   13.66487    7.91369
     244      444        3     0.00000    4.23858   13.21246    7.54626
     245      444        3     0.00000    7.60043    9.27880   15.96368
     246      444        3     0.00000    6.78060    9.37344   14.40139
     247      444        3     0.00000    7.08150   10.83978   15.35664
     248      444        3     0.00000    4.29863   13.31726   14.31429
     249      444        3     0.00000    5.79201   12.92442   15.19765
     250      444        3     0.00000    4.50414   13.86360   15.98215
     251      444        3     0.00000    1.85861   10.73548   17.05245
     252      444        3     0.00000    1.42171   11.75554   15.65693
     253      444        3     0.00000    2.05026   12.49690   17.14183
     254      444        3     0.00000    4.62321   11.27111    9.05430
     255      444        3     0.00000    4.45592   11.02937   10.79218
     256      444        3     0.00000    4.91243   12.63244   10.14316
     257      444        3     0.00000    5.92058   11.18659   13.50422
     258      444        3     0.00000    6.35135   10.85526   11.81306
     259      444        3     0.00000    5.47556   12.33820   12.25358
     260      444        4     0.00000   -0.87745    2.50662    4.71792
     261      444        4     0.00000    0.39066    1.02336    6.44444
     262      444        4     0.00000   -0.45322    1.87692   14.99298
     263      444        4     0.00000   -0.53788    1.81494    2.08521
     264      444        4     0.00000    0.86190    1.69552   -0.08198
     265      444        4     0.00000   -2.24595    4.05388   17.60719
     266      444        4     0.00000   -0.70809    3.75419    9.04954
     267      444        4     0.00000    0.59125    3.67887    6.72316
     268      444        4     0.00000   -0.86378    5.79798    7.39422
     269      444        4     0.00000   -0.57070    4.48426   14.74562
     270      444        4     0.00000   -2.63885    6.76638   10.76777
     271      444        4     0.00000   -1.23395    6.39198   12.95978
     272      444        4     0.00000   -3.40838    6.68461    3.12199
     273      444        4     0.00000   -2.30890    8.34430    1.27768
     274      444        4     0.00000   -3.45913    8.89365    9.36754
     275      444        4     0.00000   -1.99651    8.18483    7.27643
     276      444        4     0.00000   -6.44436   13.77662    8.95695
     277      444        4     0.00000   -4.74789   11.04242    4.77124
     278      444        4     0.00000   -3.80086   10.13104    7.04385
     279      444        4     0.00000   -5.27900   12.33518    7.01680
     280      444        4     0.00000   -2.47429   11.46498   12.89817
     281      444        4     0.00000   -4.28170   13.22464   11.98881
     282      444        4     0.00000    1.74028    2.46821    4.63200
     283      444        4     0.00000    2.72085    1.18044    7.65784
     284      444        4     0.00000    4.09549    1.33323    4.79401
     285      444        4     0.00000    6.20454    0.32218    5.91845
     286      444        4     0.00000    1.96855    2.52071   15.91219
     287      444        4     0.00000    7.40608    2.23754   13.62199
     288      444        4     0.00000    3.86704    3.72628    3.64724
     289      444        4     0.00000    0.27684    7.77134    5.95764
     290      444        4     0.00000    3.78206    5.64191    1.85105
     291      444        4     0.00000    4.65919    2.81135    8.37911
     292      444        4     0.00000    5.86322    2.96127    5.97954
     293      444        4     0.00000    1.39566    5.41077    8.73101
     294      444        4     0.00000    0.08104    6.44322   10.70314
     295      444        4     0.00000    2.79445    7.10463    6.31065
     296      444        4     0.00000    4.27064    4.93153    6.82371
     297      444        4     0.00000    3.48917    4.54103   15.02144
     298      444        4     0.00000    5.20073    3.67194   13.19610
     299      444        4     0.00000   -0.23061    7.00477   15.31644
     300      444        4     0.00000    2.07026    6.50796    0.00289
     301      444        4     0.00000   -1.57942    6.67485   17.53978
     302      444        4     0.00000    2.75338    6.86249   10.69049
     303      444        4     0.00000    3.87956    6.00510   12.88915
     304      444        4     0.00000    2.01974    8.45606    4.10303
     305      444        4     0.00000    3.23601    8.20728    1.66332
     306      444        4     0.00000    1.21330    8.10045    8.95182
     307      444        4     0.00000   -1.55715   10.50582    8.43996
     308      444        4     0.00000   -1.30342   13.15139    8.47074
     309      444        4     0.00000   -2.86277   11.93582   10.26061
     310      444        4     0.00000    1.85322    9.86906    7.00442
     311      444        4     0.00000    0.80496   12.26952    7.10839
     312      444        4     0.00000    3.76721    8.65936   12.56586
     313      444        4     0.00000    2.65922   11.04829   12.87033
     314      444        4     0.00000    1.40104   13.27665   13.66457
     315      444        4     0.00000   13.21157    0.72426    3.44990
     316      444        4     0.00000    6.47741    1.75808    3.69786
     317      444        4     0.00000    9.45128    1.61807   15.15472
     318      444        4     0.00000   12.41795    3.45906    9.97182
     319      444        4     0.00000    8.34370    3.17382    2.44302
     320      444        4     0.00000   10.24388    4.90596    3.22688
     321      444        4     0.00000    6.10341    5.14503    3.12423
     322      444        4     0.00000    4.97049    6.68268    4.90924
     323      444        4     0.00000    8.76870    5.40810    1.07793
     324      444        4     0.00000   11.26460    6.49569    8.81818
     325      444        4     0.00000    5.37688    7.23221   11.08203
     326      444        4     0.00000   10.23182    7.05389    4.72379
     327      444        4     0.00000    7.64570    6.25062    4.98009
     328      444        4     0.00000    9.15456    6.66147    7.12284
     329      444        4     0.00000   10.11272    4.15497   14.49690
     330      444        4     0.00000   10.68354    4.13696   11.86208
     331      444        4     0.00000   10.55019    7.79093   11.06111
     332      444        4     0.00000    7.91831    7.87174   11.74320
     333      444        4     0.00000    9.63888    6.27799   13.03091
     334      444        4     0.00000   10.00765    7.81136    0.92631
     335      444        4     0.00000   -4.79871    9.97214    2.29976
     336      444        4     0.00000    3.65816   10.28349    3.16330
     337      444        4     0.00000    4.02640   12.83036    3.68812
     338      444        4     0.00000    2.13466   11.55103    4.94344
     339      444        4     0.00000    5.39514   12.68300    1.35141
     340      444        4     0.00000    6.49860    9.37963   10.00264
     341      444        4     0.00000    7.46684   11.85077    9.51605
     342      444        4     0.00000    1.75055   10.65538    9.53074
     343      444        4     0.00000    1.79237   12.79427   11.12499
     344      444        4     0.00000    4.68624   10.98157    5.52855
     345      444        4     0.00000    6.25578   10.56183    7.60020
     346      444        4     0.00000    9.70889    8.89722   13.33727
     347      444        4     0.00000    4.13443   10.20615   14.87475
     348      444        4     0.00000    4.71913   11.13702   17.38409
     349      444        4     0.00000   -7.32393   13.34861   11.46808
     350      444        4     0.00000    9.03326   11.47717   13.24199

Bonds

       1        1        1       67
       2        2        1      260
       3        2        1      263
       4        2        1      315
       5        1        2       68
       6        2        2      262
       7        2        2      264
       8        2        2      286
       9        2        3      261
      10        2        3      276
      11        2        3      279
      12        2        3      283
      13        3        4      104
      14        3        4      105
      15        2        4      266
      16        2        4      318
      17        2        5      260
      18        2        5      261
      19        2        5      267
      20        2        5      282
      21        1        6       69
      22        1        6       77
      23        3        6      106
      24        2        6      281
      25        1        7       70
      26        3        7      107
      27        2        7      262
      28        2        7      269
      29        1        8       81
      30        2        8      263
      31        2        8      264
      32        2        8      265
      33        1        9       71
      34        2        9      272
      35        2        9      320
      36        2        9      326
      37        1       10       72
      38        3       10      108
      39        2       10      265
      40        2       10      301
      41        2       11      266
      42        2       11      267
      43        2       11      268
      44        2       11      293
      45        2       12      270
      46        2       12      274
      47        2       12      324
      48        2       12      331
      49        3       13      109
      50        2       13      268
      51        2       13      275
      52        2       13      289
      53        3       14      110
      54        2       14      269
      55        2       14      271
      56        2       14      299
      57        1       15       75
      58        2       15      270
      59        2       15      271
      60        2       15      294
      61        1       16       73
      62        3       16      111
      63        2       16      272
      64        2       16      273
      65        1       17       96
      66        3       17      112
      67        2       17      277
      68        2       17      335
      69        3       18      113
      70        3       18      114
      71        3       18      115
      72        2       18      273
      73        2       19      274
      74        2       19      275