Created on Mon Oct 06 08:27:48 2025 

         295 atoms
         315 bonds
         599 angles
         759 dihedrals

           4 atom types
           4 bond types
           9 angle types
           2 dihedral types
           0.000000  15.144723 xlo xhi
           0.000000  13.028305 ylo yhi
           0.000000  16.498013 zlo zhi
          -7.697410  -0.636627   0.580480 xy xz yz

Masses

    1    28.085500000 # Si3
    2    12.010700000 # C_3
    3    15.999400000 # O_2
    4     1.007940000 # H_

Bond Coeffs

    1      226.661263        1.866919  # Si3 C_3
    2      365.702108        1.692864  # Si3 O_2
    3      172.712984        1.470529  # Si3 H_
    4      331.069389        1.109401  # C_3 H_

Angle Coeffs

    1                      fourier      157.882480        0.343737        0.374972        0.281246 # C_3 Si3 O_2
    2                      fourier      221.735285        0.343737        0.374972        0.281246 # O_2 Si3 O_2
    3                      fourier       83.380072        0.343737        0.374972        0.281246 # O_2 Si3 H_
    4                      fourier       58.020602        0.343737        0.374972        0.281246 # C_3 Si3 H_
    5                      fourier      114.246973        0.343737        0.374972        0.281246 # C_3 Si3 C_3
    6                      fourier       32.417871        0.343737        0.374972        0.281246 # H_ Si3 H_
    7                      fourier       90.420412        0.343737        0.374972        0.281246 # Si3 C_3 H_
    8                      fourier       75.498766        0.343737        0.374972        0.281246 # H_ C_3 H_
    9              cosine/periodic       88.853997              -1               3 # Si3 O_2 Si3

Dihedral Coeffs

    1        0.089508               1               3 # O_2 Si3 C_3 H_
    2        0.333333               1               3 # C_3 Si3 O_2 Si3

Pair Coeffs

    1        0.402000        3.826410 # Si3 Si3
    2        0.105000        3.430851 # C_3 C_3
    3        0.060000        3.118146 # O_2 O_2
    4        0.044000        2.571134 # H_ H_

Atoms

       1      444        1     0.00000    2.38238   -0.00286    1.52315
       2      444        1     0.00000   -1.19162    1.47540    3.75001
       3      444        1     0.00000    1.01067    1.97638   -0.43512
       4      444        1     0.00000   -4.91526   12.74514    7.32066
       5      444        1     0.00000   13.32435    1.91923    9.76839
       6      444        1     0.00000    0.95620    1.73254    5.98823
       7      444        1     0.00000   -0.19499    3.64135    1.72947
       8      444        1     0.00000   -0.55546    3.89726    7.79437
       9      444        1     0.00000   -3.87815    6.78995    9.32184
      10      444        1     0.00000   -1.80494    6.12540    5.81352
      11      444        1     0.00000   -1.62745    7.29773   11.34299
      12      444        1     0.00000   -2.51108    8.62218    1.47479
      13      444        1     0.00000   -6.37508   10.80176    3.51492
      14      444        1     0.00000   -4.31709   11.73527   16.34113
      15      444        1     0.00000   -2.58566    8.67368    7.26378
      16      444        1     0.00000   -3.75677   10.68744    5.16488
      17      444        1     0.00000   -3.29957    9.41070   12.83512
      18      444        1     0.00000    8.19527   10.37821   15.43249
      19      444        1     0.00000    5.31491    3.37923   15.82729
      20      444        1     0.00000    3.91861    2.05774    8.85349
      21      444        1     0.00000    7.02672    4.56719    5.39315
      22      444        1     0.00000    7.10339    0.73529   12.64891
      23      444        1     0.00000    2.75657    2.62334   14.02971
      24      444        1     0.00000    5.95648    2.85457   10.78340
      25      444        1     0.00000    4.97231    5.63078    0.31754
      26      444        1     0.00000    0.57938    5.92972    3.75557
      27      444        1     0.00000    2.10107    7.79460   15.39045
      28      444        1     0.00000    4.91234    4.75362    7.47436
      29      444        1     0.00000    2.99579    6.50716    5.69808
      30      444        1     0.00000    3.97381    4.76589   12.27502
      31      444        1     0.00000    3.67035    7.54782   11.17132
      32      444        1     0.00000    1.75657    8.14366    1.78048
      33      444        1     0.00000   -1.14906   10.56014    3.56129
      34      444        1     0.00000   -1.50883   11.15001    8.85470
      35      444        1     0.00000    1.31266   10.43174    5.43954
      36      444        1     0.00000   -1.87712   11.63239   14.48334
      37      444        1     0.00000    0.76203   11.66219   10.92490
      38      444        1     0.00000    8.96741    2.56186    4.42978
      39      444        1     0.00000   10.40900    0.91055    0.76953
      40      444        1     0.00000    5.17281   12.81315    7.57511
      41      444        1     0.00000    8.68243    3.54699    9.28544
      42      444        1     0.00000   11.81463    2.17884    5.72638
      43      444        1     0.00000    8.14027    2.47654   14.87167
      44      444        1     0.00000   10.89369    2.83881   11.30318
      45      444        1     0.00000   10.35677    3.66554    1.92154
      46      444        1     0.00000    5.98388    7.23658    9.18108
      47      444        1     0.00000    8.52009    7.08125   10.85459
      48      444        1     0.00000    3.61756    9.61630    3.55234
      49      444        1     0.00000    3.27540   11.04486    9.33877
      50      444        1     0.00000    7.21535    8.91124   12.92779
      51      444        1     0.00000    5.43792   11.15555   11.64271
      52      444        2     0.00000    2.89420    1.29507    2.70686
      53      444        2     0.00000   13.19837   -0.15350    3.31834
      54      444        2     0.00000   -1.27493    2.32376   15.26140
      55      444        2     0.00000   -0.65730    1.82120   11.21469
      56      444        2     0.00000    2.43195    2.71538    5.51147
      57      444        2     0.00000   -1.52924    4.49227    0.77230
      58      444        2     0.00000    0.80967    4.78660    8.66136
      59      444        2     0.00000   -3.58341    5.91845    5.35260
      60      444        2     0.00000    0.10967    7.56306   10.78802
      61      444        2     0.00000   -3.84590    7.54616    2.17163
      62      444        2     0.00000   -1.38936    7.75526    0.28256
      63      444        2     0.00000    7.84269    9.32031    2.91225
      64      444        2     0.00000   -4.15268    8.04748   13.79049
      65      444        2     0.00000   -4.39492   10.64673   11.99569
      66      444        2     0.00000    6.61053   11.20950   15.92687
      67      444        2     0.00000    6.11730    1.90110    0.92895
      68      444        2     0.00000    2.37504    1.92983    9.84748
      69      444        2     0.00000    7.38935    6.38325    5.24589
      70      444        2     0.00000    5.96329    3.90350    4.02200
      71      444        2     0.00000    2.55936    0.95284   13.28590
      72      444        2     0.00000    3.72243    4.94179    1.50548
      73      444        2     0.00000    6.23600    6.69748    1.16816
      74      444        2     0.00000    1.00246    6.69336   14.38587
      75      444        2     0.00000    2.33791    7.48716    7.12439
      76      444        2     0.00000   -0.48396   11.91124    2.49765
      77      444        2     0.00000   -0.95089   12.47427    7.69213
      78      444        2     0.00000    1.70675   12.21616    5.25397
      79      444        2     0.00000   -0.38489   11.52553   15.57115
      80      444        2     0.00000    1.20720   10.63823   12.40015
      81      444        2     0.00000    3.26062   13.41947   16.35509
      82      444        2     0.00000    8.99643    2.00097    8.32595
      83      444        2     0.00000    9.40186    3.70513   14.31871
      84      444        2     0.00000   12.03018    3.97600   12.22914
      85      444        2     0.00000    9.54475    4.88333    0.78008
      86      444        2     0.00000    6.01015    8.68754    8.03003
      87      444        2     0.00000    6.64153    7.44443   13.89004
      88      444        2     0.00000    4.57341   12.27254   12.85124
      89      444        3     0.00000    1.45153    0.58321    0.30391
      90      444        3     0.00000    0.12158    1.20829    4.68433
      91      444        3     0.00000    1.37397    0.39296    6.85194
      92      444        3     0.00000   -0.75713    2.25159    2.38543
      93      444        3     0.00000    0.97666    3.20023    0.66505
      94      444        3     0.00000   -1.62038    3.29073    8.88933
      95      444        3     0.00000   -0.04418    2.60901    6.92996
      96      444        3     0.00000   -1.32955    4.90619    6.78176
      97      444        3     0.00000   -2.50043    6.53699   10.16226
      98      444        3     0.00000   -6.18716   11.83703    2.24827
      99      444        3     0.00000   -3.25984    9.83279    0.65581
     100      444        3     0.00000   -3.95494   12.37998    0.87439
     101      444        3     0.00000   -3.69602    8.02990    8.26866
     102      444        3     0.00000   -1.60257    7.52908    6.64900
     103      444        3     0.00000   -4.90874   10.29634    4.08445
     104      444        3     0.00000   -3.44454    9.37480    6.06709
     105      444        3     0.00000   -4.25850   11.91942    6.08813
     106      444        3     0.00000   -2.33686    8.73444   11.67802
     107      444        3     0.00000   -5.68076   11.41999   15.50270
     108      444        3     0.00000    3.87219    0.88553    7.70647
     109      444        3     0.00000    4.09447    2.74094   14.95071
     110      444        3     0.00000    1.45617    3.02096   14.93860
     111      444        3     0.00000    5.25207    1.78103    9.76801
     112      444        3     0.00000    6.30663    2.05676   12.15056
     113      444        3     0.00000    5.10932    4.98711   16.03112
     114      444        3     0.00000    0.50067    4.54274    2.90509
     115      444        3     0.00000   -0.84872    6.18937    4.48213
     116      444        3     0.00000    3.57750    7.12930   15.66156
     117      444        3     0.00000    4.09762    3.54434    8.18768
     118      444        3     0.00000    6.30370    4.19876    6.83760
     119      444        3     0.00000    1.77359    5.79604    4.85137
     120      444        3     0.00000    3.97776    5.31883    6.26961
     121      444        3     0.00000    2.82162    3.75029   12.82481
     122      444        3     0.00000    4.90709    4.03736   11.15292
     123      444        3     0.00000    3.20225    6.01000   11.54229
     124      444        3     0.00000    0.89252    7.15334    2.73537
     125      444        3     0.00000    1.96475    7.46691    0.32770
     126      444        3     0.00000   -1.63496    9.26612    2.70328
     127      444        3     0.00000   -2.41980   11.19337    4.39514
     128      444        3     0.00000   -1.63561    9.72056    8.04867
     129      444        3     0.00000   -0.04808    9.99691    4.63398
     130      444        3     0.00000   -2.26434   10.16159   13.89882
     131      444        3     0.00000   -1.63963   12.65670   13.21760
     132      444        3     0.00000   -3.14324   12.23591   15.33667
     133      444        3     0.00000   -0.39168   10.92313   10.04333
     134      444        3     0.00000    0.24098   13.14934   11.39437
     135      444        3     0.00000    8.48011    3.77604    5.40604
     136      444        3     0.00000   13.53995    0.59608    8.81844
     137      444        3     0.00000    7.24123    3.52032   10.08085
     138      444        3     0.00000   12.91775    2.47027    4.55848
     139      444        3     0.00000   10.37505    1.98525    4.98869
     140      444        3     0.00000   12.19252    0.78065    6.47608
     141      444        3     0.00000    8.12001    1.20238   13.83056
     142      444        3     0.00000    8.45325    1.80395   16.33905
     143      444        3     0.00000    6.69070    3.20996   14.94674
     144      444        3     0.00000   11.77012    1.88099   10.28122
     145      444        3     0.00000    9.84334    3.75909   10.44225
     146      444        3     0.00000    9.14707    3.10824    2.89750
     147      444        3     0.00000   11.07150    2.37400    1.16879
     148      444        3     0.00000    5.22405    5.94849    8.52205
     149      444        3     0.00000    5.20703    7.55336   10.59357
     150      444        3     0.00000   10.05603    7.20640   10.33610
     151      444        3     0.00000    7.53303    6.86737    9.56751
     152      444        3     0.00000    3.23104    8.45126    2.44892
     153      444        3     0.00000    2.59105    9.56461    4.83072
     154      444        3     0.00000    3.96492   11.84708    8.10199
     155      444        3     0.00000    2.07743   11.95516    9.97981
     156      444        3     0.00000    8.13530    8.46957   11.63635
     157      444        3     0.00000    8.14879    9.87128   13.87457
     158      444        3     0.00000    4.37296   10.65836   10.48325
     159      444        3     0.00000    5.95245    9.81973   12.43221
     160      444        4     0.00000   -5.19135   11.84958    8.46163
     161      444        4     0.00000   10.96125    5.56173    8.57280
     162      444        4     0.00000   -1.66540    6.43512   12.55665
     163      444        4     0.00000   -7.08139   11.50235    4.61712
     164      444        4     0.00000    8.48522    9.20316   16.30923
     165      444        4     0.00000    2.34304    9.12287   14.75955
     166      444        4     0.00000    3.85455    7.24510    4.74051
     167      444        4     0.00000    4.81243    5.24774   13.38370
     168      444        4     0.00000    3.62644    8.35360   12.41527
     169      444        4     0.00000    2.73892    8.04526   10.14080
     170      444        4     0.00000    1.02706    9.41732    1.65011
     171      444        4     0.00000   -2.81993   11.44673    9.48649
     172      444        4     0.00000    1.14069   10.02816    6.85065
     173      444        4     0.00000    7.94842    1.49966    4.38973
     174      444        4     0.00000    9.92945    0.24850    2.01236
     175      444        4     0.00000    6.20445   11.99144    6.91801
     176      444        4     0.00000    8.70066    4.75627    8.43807
     177      444        4     0.00000   11.74510    3.28270    6.68993
     178      444        4     0.00000   10.14338    1.89808   12.17052
     179      444        4     0.00000   11.41077    4.29123    2.75139
     180      444        4     0.00000    8.40397    5.94130   11.78625
     181      444        4     0.00000    3.49477   10.93064    2.86897
     182      444        4     0.00000    5.00102    9.36674    4.01936
     183      444        4     0.00000    2.71758    9.79715    8.79933
     184      444        4     0.00000    6.59697   11.79671   10.96575
     185      444        4     0.00000    3.28197    2.17807    2.18686
     186      444        4     0.00000    3.67018    0.91060    3.38313
     187      444        4     0.00000    2.03163    1.61100    3.29795
     188      444        4     0.00000    5.47532   12.22500    4.20338
     189      444        4     0.00000    6.09364   12.37215    2.54091
     190      444        4     0.00000   12.17103   -0.03688    2.95186
     191      444        4     0.00000   -1.22445    1.54044   14.49278
     192      444        4     0.00000   -1.58567    3.25901   14.77691
     193      444        4     0.00000   13.10480    2.04173   15.99431
     194      444        4     0.00000    0.14891    1.10922   11.00813
     195      444        4     0.00000   13.94924    1.46639   12.10278
     196      444        4     0.00000   -0.20943    2.79345   11.45937
     197      444        4     0.00000    2.22569    3.36026    4.65077
     198      444        4     0.00000    3.30219    2.08972    5.28557
     199      444        4     0.00000    2.70202    3.36443    6.34672
     200      444        4     0.00000   -2.12864    5.17736    1.38204
     201      444        4     0.00000   -2.19859    3.72682    0.35751
     202      444        4     0.00000   -1.09283    5.05809   -0.05938
     203      444        4     0.00000    0.56014    5.85169    8.71623
     204      444        4     0.00000    1.76455    4.68178    8.13304
     205      444        4     0.00000    0.95459    4.41730    9.68400
     206      444        4     0.00000   -3.71625    5.12116    4.61055
     207      444        4     0.00000   -3.99065    6.84743    4.93322
     208      444        4     0.00000   10.96840    5.65658    6.23970
     209      444        4     0.00000    0.15581    8.07425    9.81708
     210      444        4     0.00000    0.65698    6.61501   10.72968
     211      444        4     0.00000    0.61451    8.19584   11.52812
     212      444        4     0.00000   -3.44942    6.61885    2.60278
     213      444        4     0.00000   10.59093    7.28691    1.37438
     214      444        4     0.00000   -4.39262    8.08826    2.95481
     215      444        4     0.00000   -1.41685    9.04395   16.20846
     216      444        4     0.00000   -2.61968    7.76458   16.05638
     217      444        4     0.00000   -0.71852    7.06299    0.79842
     218      444        4     0.00000    7.62904    8.63971    3.74632
     219      444        4     0.00000    8.41573    8.76922    2.15400
     220      444        4     0.00000    6.88308    9.61253    2.46573
     221      444        4     0.00000   -3.42032    7.28293   14.08906
     222      444        4     0.00000   10.22645    7.55525   13.17738
     223      444        4     0.00000   -4.63899    8.43214   14.69722
     224      444        4     0.00000   -5.07479   11.13314   12.70469
     225      444        4     0.00000   -5.00384   10.14991   11.22807
     226      444        4     0.00000   -3.77608   11.41312   11.50832
     227      444        4     0.00000    5.76205   10.51403   15.84111
     228      444        4     0.00000    6.41058   12.07845   15.28661
     229      444        4     0.00000    7.31247   10.98625    0.46483
     230      444        4     0.00000    7.03998    2.18609    1.45103
     231      444        4     0.00000    6.15735    0.82507    0.72509
     232      444        4     0.00000    5.26771    2.07660    1.59724
     233      444        4     0.00000    2.35203    0.93087   10.30821
     234      444        4     0.00000    1.48956    2.01873    9.20660
     235      444        4     0.00000    2.31385    2.67314   10.65013
     236      444        4     0.00000    6.46841    6.98297    5.20290
     237      444        4     0.00000    7.95226    6.56030    4.31779
     238      444        4     0.00000    8.00908    6.73296    6.08468
     239      444        4     0.00000    5.80003    2.82290    4.14536
     240      444        4     0.00000    6.41555    4.06579    3.03509
     241      444        4     0.00000    4.98187    4.39196    4.04640
     242      444        4     0.00000    2.35310    0.19468   14.04930
     243      444        4     0.00000    3.46482    0.65012   12.74420
     244      444        4     0.00000    1.71548    0.96062   12.58378
     245      444        4     0.00000    4.15184    4.10272    2.06542
     246      444        4     0.00000    2.82096    4.57959    0.99567
     247      444        4     0.00000    3.42528    5.70127    2.24149
     248      444        4     0.00000    7.00165    7.06756    0.47334
     249      444        4     0.00000    6.74448    6.14226    1.96917
     250      444        4     0.00000    5.73619    7.56044    1.62961
     251      444        4     0.00000    0.87352    5.72576   14.89345
     252      444        4     0.00000    1.41045    6.49143   13.38721
     253      444        4     0.00000    0.01083    7.15491   14.27055
     254      444        4     0.00000    2.88825    8.42959    7.22182
     255      444        4     0.00000    2.45847    6.92749    8.05931
     256      444        4     0.00000    1.27468    7.73465    7.00483
     257      444        4     0.00000   -1.19112   12.11375    1.68374
     258      444        4     0.00000    0.48545   11.65440    2.05390
     259      444        4     0.00000   -0.36378   12.84130    3.06876
     260      444        4     0.00000   -1.50147   12.44756    6.74231
     261      444        4     0.00000    0.12100   12.35947    7.49069
     262      444        4     0.00000    6.58456    0.42807    8.15127
     263      444        4     0.00000    2.00517   12.46065    4.22567
     264      444        4     0.00000    2.53591   12.48450    5.91919
     265      444        4     0.00000    0.85066   12.84574    5.51641
     266      444        4     0.00000   -0.04365   12.53164   15.84553
     267      444        4     0.00000    0.44361   10.99738   15.08224
     268      444        4     0.00000   -0.62559   10.98933   16.49651
     269      444        4     0.00000    1.92559    9.84709   12.14991
     270      444        4     0.00000    0.31408   10.16736   12.83201
     271      444        4     0.00000    1.67635   11.27059   13.16622
     272      444        4     0.00000   11.19528    0.77854   15.35477
     273      444        4     0.00000    2.77966   12.43735   16.22329
     274      444        4     0.00000    4.83609   12.68075    0.40328
     275      444        4     0.00000    8.99898    1.10903    8.96433
     276      444        4     0.00000    9.98769    2.07701    7.86081
     277      444        4     0.00000    8.24936    1.87988    7.53275
     278      444        4     0.00000    9.15189    4.03492   13.29992
     279      444        4     0.00000   10.40962    3.27270   14.30521
     280      444        4     0.00000    9.41732    4.59368   14.95703
     281      444        4     0.00000   -2.39732    4.42229   11.52850
     282      444        4     0.00000   12.59272    3.43818   13.00263
     283      444        4     0.00000   11.48334    4.79778   12.70789
     284      444        4     0.00000    9.10908    5.68048    1.39918
     285      444        4     0.00000    8.72255    4.42800    0.21150
     286      444        4     0.00000   10.25007    5.35142    0.08053
     287      444        4     0.00000    5.00832    8.98473    7.69431
     288      444        4     0.00000    6.61391    8.45777    7.14100
     289      444        4     0.00000    6.47302    9.54957    8.53155
     290      444        4     0.00000    7.45193    7.05687   14.52487
     291      444        4     0.00000    6.31823    6.62470   13.23759
     292      444        4     0.00000    5.78839    7.70185   14.53227
     293      444        4     0.00000    3.96451   13.03088   12.33997
     294      444        4     0.00000    5.29913   12.78540   13.49712
     295      444        4     0.00000    3.91756   11.67719   13.50234

Bonds

       1        1        1       52
       2        2        1       89
       3        2        1       98
       4        2        1      100
       5        1        2       53
       6        2        2       90
       7        2        2       92
       8        2        2      138
       9        1        3       54
      10        2        3       89
      11        2        3       93
      12        2        3      110
      13        2        4       91
      14        2        4      105
      15        2        4      108
      16        3        4      160
      17        1        5       55
      18        2        5       94
      19        2        5      136
      20        2        5      144
      21        1        6       56
      22        2        6       90
      23        2        6       91
      24        2        6       95
      25        1        7       57
      26        2        7       92
      27        2        7       93
      28        2        7      114
      29        1        8       58
      30        2        8       94
      31        2        8       95
      32        2        8       96
      33        2        9       97
      34        2        9      101
      35        2        9      150
      36        3        9      161
      37        1       10       59
      38        2       10       96
      39        2       10      102
      40        2       10      115
      41        1       11       60
      42        2       11       97
      43        2       11      106
      44        3       11      162
      45        1       12       61
      46        1       12       62
      47        2       12       99
      48        2       12      126
      49        1       13       63
      50        2       13       98
      51        2       13      103
      52        3       13      163
      53        2       14       99
      54        2       14      100
      55        2       14      107
      56        2       14      132
      57        2       15      101
      58        2       15      102
      59        2       15      104
      60        2       15      128
      61        2       16      103
      62        2       16      104
      63        2       16      105
      64        2       16      127
      65        1       17       64
      66        1       17       65
      67        2       17      106
      68        2       17      130
      69        1       18       66
      70        2       18      107
      71        2       18      157
      72        3       18      164
      73        1       19       67
      74        2       19      109
      75        2       19      113
      76        2       19      143
      77        1       20       68
      78        2       20      108
      79        2       20      111
      80        2       20      117
      81        1       21       69
      82        1       21       70
      83        2       21      118
      84        2       21      135
      85        2       22      112
      86        2       22      131
      87        2       22      134
      88        2       22      141
      89        1       23       71
      90        2       23      109
      91        2       23      110
      92        2       23      121
      93        2       24      111
      94        2       24      112
      95        2       24      122
      96        2       24      137
      97        1       25       72
      98        1       25       73
      99        2       25      113
     100        2       25      116
     101        2       26      114
     102        2       26      115
     103        2       26      119
     104        2       26      124
     105        1       27       74
     106        2       27      116
     107        2       27      125
     108        3       27      165
     109        2       28      117
     110        2       28      118
     111        2       28      120
     112        2       28      148
     113        1       29       75
     114        2       29      119
     115        2       29      120
     116        3       29      166
     117        2       30      121
     118        2       30      122
     119        2       30      123
     120        3       30      167
     121        2       31      123
     122        2       31      149
     123        3       31      168
     124        3       31      169
     125        2       32      124
     126        2       32      125
     127        2       32      152
     128        3       32      170
     129        1       33       76
     130        2       33      126
     131        2       33      127
     132        2       33      129
     133        1       34       77
     134        2       34      128
     135        2       34      133
     136        3       34      171
     137        1       35       78
     138        2       35      129
     139        2       35      153
     140        3       35      172
     141        1       36       79
     142        2       36      130
     143        2       36      131
     144        2       36      132
     145        1       37       80
     146        2       37      133
     147        2       37      134
     148        2       37      155
     149        2       38      135
     150        2       38      139
     151        2       38      146
     152        3       38      173
     153        1       39       81
     154        2       39      142
     155        2       39      147
     156        3       39      174
     157        2       40      136
     158        2       40      140
     159        2       40      154
     160        3       40      175
     161        1       41       82
     162        2       41      137
     163        2       41      145
     164        3       41      176
     165        2       42      138
     166        2       42      139
     167        2       42      140
     168        3       42      177
     169        1       43       83
     170        2       43      141
     171        2       43      142
     172        2       43      143
     173        1       44       84
     174        2       44      144
     175        2       44      145
     176        3       44      178
     177        1       45       85
     178        2       45      146
     179        2       45      147
     180        3       45      179
     181        1       46       86
     182        2       46      148
     183        2       46      149
     184        2       46      151