Created on Mon Oct 06 08:35:16 2025 

         362 atoms
         387 bonds
         733 angles
         915 dihedrals

           4 atom types
           4 bond types
           9 angle types
           2 dihedral types
           0.000000  17.141708 xlo xhi
           0.000000  12.825146 ylo yhi
           0.000000  17.586657 zlo zhi
          -8.381958   0.030516   0.302718 xy xz yz

Masses

    1    28.085500000 # Si3
    2    12.010700000 # C_3
    3     1.007940000 # H_
    4    15.999400000 # O_2

Bond Coeffs

    1      226.661263        1.866919  # Si3 C_3
    2      365.702108        1.692864  # Si3 O_2
    3      172.712984        1.470529  # Si3 H_
    4      331.069389        1.109401  # C_3 H_

Angle Coeffs

    1                      fourier      114.246973        0.343737        0.374972        0.281246 # C_3 Si3 C_3
    2                      fourier      157.882480        0.343737        0.374972        0.281246 # C_3 Si3 O_2
    3                      fourier      221.735285        0.343737        0.374972        0.281246 # O_2 Si3 O_2
    4                      fourier       32.417871        0.343737        0.374972        0.281246 # H_ Si3 H_
    5                      fourier       83.380072        0.343737        0.374972        0.281246 # H_ Si3 O_2
    6                      fourier       58.020602        0.343737        0.374972        0.281246 # C_3 Si3 H_
    7                      fourier       90.420412        0.343737        0.374972        0.281246 # Si3 C_3 H_
    8                      fourier       75.498766        0.343737        0.374972        0.281246 # H_ C_3 H_
    9              cosine/periodic       88.853997              -1               3 # Si3 O_2 Si3

Dihedral Coeffs

    1        0.089508               1               3 # C_3 Si3 C_3 H_
    2        0.333333               1               3 # C_3 Si3 O_2 Si3

Pair Coeffs

    1        0.402000        3.826410 # Si3 Si3
    2        0.105000        3.430851 # C_3 C_3
    3        0.044000        2.571134 # H_ H_
    4        0.060000        3.118146 # O_2 O_2

Atoms

       1      444        1     0.00000    3.86508    0.28608    2.48489
       2      444        1     0.00000   -0.26072    3.27896    5.18015
       3      444        1     0.00000    3.19469    0.02590    7.92715
       4      444        1     0.00000   14.85189    1.37137   10.36069
       5      444        1     0.00000    2.52982    2.36554    6.05968
       6      444        1     0.00000   -6.11916   12.36723   13.58100
       7      444        1     0.00000   14.86714    2.00058   15.02783
       8      444        1     0.00000    0.25193    1.32857   12.03708
       9      444        1     0.00000   -0.37950    3.89100    2.04498
      10      444        1     0.00000   -4.14759    6.83836    3.54987
      11      444        1     0.00000   -3.62459    5.75597    9.39349
      12      444        1     0.00000    0.78359    4.16166   12.95734
      13      444        1     0.00000   -2.74549    6.24331   15.35097
      14      444        1     0.00000   -2.40806    8.84252    1.88701
      15      444        1     0.00000   -3.64489   11.24972    0.18345
      16      444        1     0.00000   -4.47368    8.65337    9.53937
      17      444        1     0.00000    8.28064   10.57414    9.77609
      18      444        1     0.00000   -6.42451   11.32501   16.36862
      19      444        1     0.00000    8.67655   -0.12697    1.53405
      20      444        1     0.00000    5.17829    2.49774    4.18445
      21      444        1     0.00000    7.52790    2.46562    0.42897
      22      444        1     0.00000    0.01969   12.68186    7.44547
      23      444        1     0.00000    5.10540    2.24162    9.26919
      24      444        1     0.00000    8.11398    1.97817    5.25461
      25      444        1     0.00000   -0.34497   12.81787   13.00908
      26      444        1     0.00000    4.87739    2.87670   16.25551
      27      444        1     0.00000    7.44268    2.33750   11.12560
      28      444        1     0.00000    6.66677    4.53257    2.60555
      29      444        1     0.00000    2.80765    6.26371    4.45700
      30      444        1     0.00000    3.59541    6.55560   17.00318
      31      444        1     0.00000    6.10996    4.46611    7.46042
      32      444        1     0.00000    4.08091    6.81026    7.23529
      33      444        1     0.00000    5.23144    4.56027   13.75006
      34      444        1     0.00000    0.86607    6.22475   15.29819
      35      444        1     0.00000    3.49104    6.44203   11.79163
      36      444        1     0.00000    3.46530    8.03459    2.02686
      37      444        1     0.00000   -0.96040   10.88726    3.92868
      38      444        1     0.00000    0.76860   10.80530   16.80658
      39      444        1     0.00000    1.57616    7.90900    8.47974
      40      444        1     0.00000    1.03309   10.02919    6.32372
      41      444        1     0.00000    1.67819    8.50247   13.45311
      42      444        1     0.00000   -1.85570   11.31593   15.29935
      43      444        1     0.00000    0.30772   10.42143   11.35439
      44      444        1     0.00000    5.85233   12.60213    1.23075
      45      444        1     0.00000   10.42640    1.78466    3.12283
      46      444        1     0.00000   12.79228    2.23472   -0.22692
      47      444        1     0.00000    5.04136   12.09338    8.48639
      48      444        1     0.00000    9.96451    1.87403    9.36623
      49      444        1     0.00000    5.19317   12.42015   13.43501
      50      444        1     0.00000   10.05590    3.36787   16.20329
      51      444        1     0.00000   12.08826    2.40867   11.12831
      52      444        1     0.00000   11.85424    4.35056    1.79301
      53      444        1     0.00000    8.00605    6.62060    4.24039
      54      444        1     0.00000   10.35515    6.68468    0.32539
      55      444        1     0.00000   11.89744    3.69290    7.82256
      56      444        1     0.00000    8.62445    5.96806    8.49012
      57      444        1     0.00000   10.72711    7.29568    5.62676
      58      444        1     0.00000   11.30387    5.75477   14.50973
      59      444        1     0.00000    8.90087    8.75993    2.16581
      60      444        1     0.00000    5.25364   10.18106    2.95699
      61      444        1     0.00000    7.89100   10.59659   -0.17863
      62      444        1     0.00000    8.72010    8.82456    7.14159
      63      444        1     0.00000    3.06035   10.28634   10.08721
      64      444        1     0.00000    7.18552   10.63350    5.19429
      65      444        1     0.00000    3.17799   10.67363   15.20956
      66      444        1     0.00000    5.83010   10.02903   11.61766
      67      444        2     0.00000    2.21617    0.84791    1.84062
      68      444        2     0.00000   -4.66856   11.97573    3.96034
      69      444        2     0.00000   -0.38885    4.58303    6.51512
      70      444        2     0.00000    2.38521    3.56404    7.43926
      71      444        2     0.00000   -0.64923    1.90888   15.91184
      72      444        2     0.00000   -2.79057    6.51141    4.76060
      73      444        2     0.00000   -0.24905    5.17193   11.78186
      74      444        2     0.00000   -1.19386    7.68671    1.12271
      75      444        2     0.00000   -3.54802    8.92504    7.93714
      76      444        2     0.00000   -4.12642    9.84599   10.93630
      77      444        2     0.00000    9.43724   10.04058   11.11406
      78      444        2     0.00000   -1.76139   12.40205    7.76590
      79      444        2     0.00000    4.27023    3.48443   10.34734
      80      444        2     0.00000    1.22507    1.72153   10.51512
      81      444        2     0.00000    3.71421    0.51325   12.96279
      82      444        2     0.00000    1.22935    4.62561    1.48275
      83      444        2     0.00000    1.06751    6.90812    4.55366
      84      444        2     0.00000    5.97940    5.76355    1.43840
      85      444        2     0.00000    5.05728    7.22470   16.07739
      86      444        2     0.00000    6.92157    5.34055   13.87601
      87      444        2     0.00000    2.15895    9.30264    2.35105
      88      444        2     0.00000   -0.74094    9.56467   10.09750
      89      444        2     0.00000   15.14054    0.67456    2.56813
      90      444        2     0.00000   -1.61574    2.10620    5.67168
      91      444        2     0.00000   11.65988    0.80886    4.09157
      92      444        2     0.00000   12.84662    0.34004    7.10765
      93      444        2     0.00000    9.86255    0.02801   13.18530
      94      444        2     0.00000    9.20991    2.60654   14.76639
      95      444        2     0.00000    5.10458    8.23506    7.76215
      96      444        2     0.00000   11.90225    7.82978   17.21822
      97      444        2     0.00000    8.79332    6.79294   16.95494
      98      444        2     0.00000    9.11921    6.16971   10.26415
      99      444        2     0.00000   11.75744    3.80952    5.98539
     100      444        2     0.00000   11.50137    4.80815   12.94876
     101      444        2     0.00000   10.34990    7.29724   14.04404
     102      444        2     0.00000    9.91794   10.11014    2.89694
     103      444        2     0.00000    2.78004   10.15947    5.81512
     104      444        2     0.00000    8.58474   11.84131    5.40232
     105      444        2     0.00000    4.17313   10.40356   16.71352
     106      444        2     0.00000    7.57064   10.15444   15.74453
     107      444        2     0.00000    6.33341    8.51408   12.54435
     108      444        3     0.00000   -4.34631   11.79147    7.33474
     109      444        3     0.00000   15.60492    2.08813    9.30318
     110      444        3     0.00000   -5.98998   10.91851   13.27772
     111      444        3     0.00000   -1.55063    4.62499    1.49151
     112      444        3     0.00000   -0.40772    2.49790    1.53595
     113      444        3     0.00000   13.95861    4.81972   10.44885
     114      444        3     0.00000   -2.51297    6.04466    8.44119
     115      444        3     0.00000   14.80504    2.87420   13.83221
     116      444        3     0.00000    2.19818    4.01679   12.53770
     117      444        3     0.00000   -1.94978    5.48645   14.34470
     118      444        3     0.00000   -2.53489    5.64585   16.69976
     119      444        3     0.00000   -5.93291    8.67117    9.22941
     120      444        3     0.00000    8.31536   12.03694    9.53652
     121      444        3     0.00000   -6.23643   12.24018    8.78089
     122      444        3     0.00000   -6.54140   10.02488   15.67520
     123      444        3     0.00000    3.82659    2.94263   17.29730
     124      444        3     0.00000    4.81335    1.63101   15.45992
     125      444        3     0.00000    2.83135    4.78521    4.48085
     126      444        3     0.00000    3.75161    4.94348    0.06736
     127      444        3     0.00000    8.33676    3.11228    6.16914
     128      444        3     0.00000    6.51889    4.47412    6.05458
     129      444        3     0.00000    7.02532    3.70618   11.45941
     130      444        3     0.00000    5.26822    3.28435   12.99796
     131      444        3     0.00000   -0.23299    6.23560   16.28340
     132      444        3     0.00000    2.58025    5.60182   10.98793
     133      444        3     0.00000   -1.93629   11.64923    4.71400
     134      444        3     0.00000    1.25686    9.49736   17.27441
     135      444        3     0.00000    0.56499    7.22569    9.29826
     136      444        3     0.00000   -2.61393   10.34643   14.48145
     137      444        3     0.00000   12.95415    0.46988   12.44173
     138      444        3     0.00000   11.65779    3.73582   10.65145
     139      444        3     0.00000    6.86536    6.76800    5.15862
     140      444        3     0.00000   -2.30881    7.66786   15.35908
     141      444        3     0.00000   13.00609    2.79620    8.24492
     142      444        3     0.00000    9.67134    5.37174    7.64469
     143      444        3     0.00000    4.54905    7.00727   10.92058
     144      444        3     0.00000   11.44510    6.50277    6.63212
     145      444        3     0.00000   11.71508    2.13299   12.52397
     146      444        3     0.00000    4.32934   10.30405    4.07500
     147      444        3     0.00000    5.93182   11.11659    5.81209
     148      444        3     0.00000    6.06598   11.14630    7.99903
     149      444        3     0.00000    1.67787    1.36080    2.65274
     150      444        3     0.00000    1.59850    0.01056    1.48966
     151      444        3     0.00000    2.33221    1.55633    1.00863
     152      444        3     0.00000   -3.87369   12.17763    4.68929
     153      444        3     0.00000   -4.60792   10.91430    3.68655
     154      444        3     0.00000   -5.62936   12.14019    4.46604
     155      444        3     0.00000   -0.48005    4.07829    7.48782
     156      444        3     0.00000   -1.31923    5.14239    6.35744
     157      444        3     0.00000    0.42251    5.30737    6.59048
     158      444        3     0.00000    2.19786    4.58574    7.10798
     159      444        3     0.00000    3.30373    3.59758    8.01774
     160      444        3     0.00000    1.56322    3.26490    8.10145
     161      444        3     0.00000    0.09158    1.29780   15.38507
     162      444        3     0.00000   -0.78488    1.48723   16.91641
     163      444        3     0.00000   -0.24018    2.92415   16.01274
     164      444        3     0.00000   -2.00892    5.88366    4.31369
     165      444        3     0.00000   -3.17348    5.99987    5.65444
     166      444        3     0.00000   -2.33545    7.45681    5.08907
     167      444        3     0.00000   -1.31171    5.09129   12.05319
     168      444        3     0.00000   -0.13326    4.81682   10.74677
     169      444        3     0.00000    0.03064    6.23364   11.80691
     170      444        3     0.00000   -1.70520    7.00107    0.43453
     171      444        3     0.00000   -0.71625    7.07993    1.90381
     172      444        3     0.00000   -0.40983    8.20465    0.55848
     173      444        3     0.00000   -3.81590    8.13158    7.22375
     174      444        3     0.00000   -2.45759    8.91179    8.06088
     175      444        3     0.00000   -3.84122    9.88081    7.48179
     176      444        3     0.00000   -4.19406   10.89842   10.62187
     177      444        3     0.00000   -3.13193    9.68643   11.36969
     178      444        3     0.00000   -4.85632    9.69060   11.74307
     179      444        3     0.00000    9.50475    8.94602   11.17372
     180      444        3     0.00000    9.07923   10.42840   12.07732
     181      444        3     0.00000   -6.69843   10.43741   10.94370
     182      444        3     0.00000   -2.06149   11.51696    7.18950
     183      444        3     0.00000    6.03683    0.42466    7.39399
     184      444        3     0.00000   -1.99547   12.23591    8.82219
     185      444        3     0.00000    4.06615    3.06338   11.33836
     186      444        3     0.00000    3.33368    3.86506    9.93504
     187      444        3     0.00000    4.95138    4.33803   10.47913
     188      444        3     0.00000    0.92496    2.70363   10.12293
     189      444        3     0.00000    1.02600    0.97392    9.73640
     190      444        3     0.00000    2.30344    1.74640   10.69624
     191      444        3     0.00000    3.84876    0.36133   11.88172
     192      444        3     0.00000    4.64298    0.20267   13.45947
     193      444        3     0.00000    3.58706    1.58840   13.15341
     194      444        3     0.00000    1.36487    4.35028    0.42579
     195      444        3     0.00000    2.07753    4.20352    2.03949
     196      444        3     0.00000    1.27422    5.71843    1.55389
     197      444        3     0.00000    0.98272    7.91993    4.14387
     198      444        3     0.00000    0.65911    6.94031    5.56632
     199      444        3     0.00000    0.42253    6.24922    3.95640
     200      444        3     0.00000    6.30350    6.78489    1.66387
     201      444        3     0.00000    4.89376    5.71154    1.53220
     202      444        3     0.00000    6.26399    5.51731    0.41098
     203      444        3     0.00000    4.72159    7.75196   15.17600
     204      444        3     0.00000    5.75746    6.43677   15.79389
     205      444        3     0.00000    5.59253    7.92866   16.72417
     206      444        3     0.00000    7.54971    5.05449   13.02114
     207      444        3     0.00000    7.42510    5.02037   14.79718
     208      444        3     0.00000    6.85730    6.43334   13.89288
     209      444        3     0.00000    2.15899    9.63952    3.39211
     210      444        3     0.00000    1.15860    8.92337    2.11288
     211      444        3     0.00000    2.34172   10.18488    1.72551
     212      444        3     0.00000   -0.98853    8.53260   10.37333
     213      444        3     0.00000   -0.29612    9.57236    9.09805
     214      444        3     0.00000   -1.67140   10.13696   10.02411
     215      444        3     0.00000   14.87449    1.73692    2.59676
     216      444        3     0.00000   16.23034    0.58783    2.49018
     217      444        3     0.00000   14.82304    0.22459    3.51578
     218      444        3     0.00000   -1.42874    1.75293    6.69672
     219      444        3     0.00000   -1.75240    1.23974    5.02461
     220      444        3     0.00000   14.58513    2.67831    5.68339
     221      444        3     0.00000   12.55115    1.37741    4.37804
     222      444        3     0.00000   11.98107   -0.04607    3.48263
     223      444        3     0.00000   11.18451    0.42480    5.00108
     224      444        3     0.00000   11.86484    0.77580    7.32597
     225      444        3     0.00000    4.36063   12.52470    6.22474
     226      444        3     0.00000   13.55212    1.13489    6.85387
     227      444        3     0.00000    1.87261   11.84246   13.06078
     228      444        3     0.00000   10.25536    0.42291   14.11820
     229      444        3     0.00000   10.26009    0.60723   12.34320
     230      444        3     0.00000    9.86072    2.47125   13.89819
     231      444        3     0.00000    8.38085    3.25768   14.46921
     232      444        3     0.00000    8.77459    1.64305   15.05427
     233      444        3     0.00000    5.47846    8.09435    8.78397
     234      444        3     0.00000    4.56369    9.18286    7.72445
     235      444        3     0.00000    5.96349    8.31484    7.08883
     236      444        3     0.00000   -5.25975    8.08922   16.15827
     237      444        3     0.00000   -4.38692    6.89928   -0.19243
     238      444        3     0.00000   -5.13291    8.44950    0.20550
     239      444        3     0.00000    8.89150    6.71694   15.87247
     240      444        3     0.00000    8.11818    7.62528   17.18844
     241      444        3     0.00000    8.29882    5.56005   -0.28132
     242      444        3     0.00000    9.29884    5.18032   10.70598
     243      444        3     0.00000    8.32770    6.67099   10.84022
     244      444        3     0.00000   10.04532    6.75416   10.34889
     245      444        3     0.00000   10.84430    4.33340    5.67493
     246      444        3     0.00000   11.69515    2.78727    5.59541
     247      444        3     0.00000   12.62144    4.29245    5.51326
     248      444        3     0.00000   10.58135    4.32017   12.60782
     249      444        3     0.00000   12.28253    4.05189   13.09589
     250      444        3     0.00000   11.83623    5.50338   12.16694
     251      444        3     0.00000   10.22576    8.05792   14.82035
     252      444        3     0.00000    9.35709    7.03526   13.64974
     253      444        3     0.00000   10.91627    7.75427   13.21702
     254      444        3     0.00000    9.35271   11.03463    3.04687
     255      444        3     0.00000   -6.42104   10.31629    2.17549
     256      444        3     0.00000   10.39147    9.81388    3.83952
     257      444        3     0.00000    2.88869   10.98363    5.10259
     258      444        3     0.00000    3.18705    9.24548    5.37357
     259      444        3     0.00000    3.37183   10.40923    6.70175
     260      444        3     0.00000    8.63364   12.63322    4.64785
     261      444        3     0.00000    9.54749   11.31512    5.40586
     262      444        3     0.00000    8.47632   12.32157    6.38605
     263      444        3     0.00000    5.22868   10.22457   16.51449
     264      444        3     0.00000    3.78140    9.57960   17.30991
     265      444        3     0.00000    4.08919   11.32786   17.29801
     266      444        3     0.00000    8.46887    9.61747   15.40688
     267      444        3     0.00000    7.36013   10.94920   15.01579
     268      444        3     0.00000    6.75046    9.43085   15.72325
     269      444        3     0.00000    6.43337    7.64570   11.88264
     270      444        3     0.00000    5.60315    8.27180   13.32734
     271      444        3     0.00000    7.30242    8.69816   13.02990
     272      444        4     0.00000    1.21411    2.51074    5.08383
     273      444        4     0.00000    2.48871    0.84501    6.70002
     274      444        4     0.00000   15.86109    0.95026   11.57603
     275      444        4     0.00000   -7.52208   12.88507   12.87750
     276      444        4     0.00000   -0.55693    3.92109    3.69524
     277      444        4     0.00000    0.19696    2.62322   13.04300
     278      444        4     0.00000   -3.67335    7.97675    2.47112
     279      444        4     0.00000   -2.99005    9.88752    0.77330
     280      444        4     0.00000    4.77901   -0.39829    1.28588
     281      444        4     0.00000   -4.10803    7.13490   10.13178
     282      444        4     0.00000   -5.16772   11.26209   17.38835
     283      444        4     0.00000   -6.24312   12.49284   15.22938
     284      444        4     0.00000    4.74415    1.61372    2.90247
     285      444        4     0.00000    3.93900    2.53427    5.24427
     286      444        4     0.00000    7.62203    0.86669    0.77689
     287      444        4     0.00000    4.09956    1.00702    8.89176
     288      444        4     0.00000    6.52199    1.86043    4.88068
     289      444        4     0.00000    8.59043    0.59217    5.99167
     290      444        4     0.00000    6.36284    3.00015   16.93771
     291      444        4     0.00000    6.39895    1.63730   10.07723
     292      444        4     0.00000    7.45533    1.43007   12.47065
     293      444        4     0.00000    5.51391    4.01013    3.66914
     294      444        4     0.00000    7.23412    3.22342    1.82491
     295      444        4     0.00000    5.68677    2.94175    7.89761
     296      444        4     0.00000    3.81789    6.84218    5.62337
     297      444        4     0.00000    4.80966    5.41848    7.67418
     298      444        4     0.00000    4.64748    4.16738   15.24547
     299      444        4     0.00000    0.77931    4.82075   14.46478
     300      444        4     0.00000    2.29552    6.36225   16.03145
     301      444        4     0.00000    4.19387    5.60554   13.01622
     302      444        4     0.00000    3.45962    6.76221    3.04502
     303      444        4     0.00000    3.19121    7.39966    0.54891
     304      444        4     0.00000   -1.70104    9.69094    3.10426
     305      444        4     0.00000   -0.23952   11.94655    2.89540
     306      444        4     0.00000    0.65428   11.52235    0.47663
     307      444        4     0.00000    2.58923    6.75468    7.93798
     308      444        4     0.00000    0.04748   10.14605    5.00838
     309      444        4     0.00000    0.80830    8.65018    7.21779
     310      444        4     0.00000    0.74633   11.23038    7.38305
     311      444        4     0.00000    0.70063    7.51247   14.30267
     312      444        4     0.00000    2.56752    7.63950   12.40408
     313      444        4     0.00000   -0.67203   10.52775   16.09898
     314      444        4     0.00000   -1.23049   12.49170   14.35448
     315      444        4     0.00000   -2.83251   12.01146   16.41210
     316      444        4     0.00000    0.66246    9.48622   12.65724
     317      444        4     0.00000   -0.63112   11.67000   11.85983
     318      444        4     0.00000    9.97946    0.78701    1.88696
     319      444        4     0.00000    9.06225    2.15149    3.95236
     320      444        4     0.00000   13.79503    2.72059   16.07023
     321      444        4     0.00000   13.20183    0.80722    0.47772
     322      444        4     0.00000    5.72069   12.89421    9.75025
     323      444        4     0.00000    9.21136    0.69403    8.58185
     324      444        4     0.00000    8.93642    2.49486   10.47372
     325      444        4     0.00000   14.41802    0.47061   14.53040
     326      444        4     0.00000   11.28874    2.46683   16.80920
     327      444        4     0.00000    8.88596    3.12382   -0.19548
     328      444        4     0.00000   13.71504    2.36824   10.96968
     329      444        4     0.00000   11.28573    1.31154   10.16764
     330      444        4     0.00000   11.06121    3.20406    2.63323
     331      444        4     0.00000   12.91230    3.51139    0.82195
     332      444        4     0.00000   12.62001    5.41100    2.79492
     333      444        4     0.00000    7.89691    5.18350    3.46921
     334      444        4     0.00000   10.79216    5.20238    0.92149
     335      444        4     0.00000   10.46337    3.05013    8.35013
     336      444        4     0.00000   12.24517    5.14121    8.53507
     337      444        4     0.00000    7.30099    4.98724    8.45264
     338      444        4     0.00000   11.72469    7.53903    4.35416
     339      444        4     0.00000    9.40558    6.51079    5.08323
     340      444        4     0.00000   10.61577    4.84460   15.71647
     341      444        4     0.00000   12.81649    6.17913   14.94734
     342      444        4     0.00000    7.97807    7.88956    3.21380
     343      444        4     0.00000    9.94825    7.65865    1.58721
     344      444        4     0.00000    4.95065    8.77310    2.16393
     345      444        4     0.00000    4.94657   11.42826    1.94197
     346      444        4     0.00000    9.37492   11.31266   -0.29150
     347      444        4     0.00000    7.93720    9.42399    0.98102
     348      444        4     0.00000    6.85389   11.81500    0.19252
     349      444        4     0.00000    8.24078    7.41857    7.80262
     350      444        4     0.00000   10.19288    8.67104    6.39643
     351      444        4     0.00000    8.73234    9.94453    8.31735
     352      444        4     0.00000    2.49193    8.92982    9.37277
     353      444        4     0.00000    3.70766   11.26096    8.96740
     354      444        4     0.00000    1.75561   10.97733   10.78073
     355      444        4     0.00000    6.76511   10.32083    3.61416
     356      444        4     0.00000    7.64504    9.25232    5.98168
     357      444        4     0.00000    2.72008    9.30718   14.41225
     358      444        4     0.00000    3.99437   11.63127   14.19198
     359      444        4     0.00000    1.79414   11.42787   15.69674
     360      444        4     0.00000    6.75394   10.14360   10.25635
     361      444        4     0.00000    4.23926    9.95894   11.17600
     362      444        4     0.00000    6.09380   11.30435   12.63111

Bonds

       1        1        1       67
       2        1        1       68
       3        2        1      280
       4        2        1      284
       5        1        2       69
       6        1        2       90
       7        2        2      272
       8        2        2      276
       9        3        3      108
      10        3        3      121
      11        2        3      273
      12        2        3      287
      13        3        4      109
      14        2        4      274
      15        2        4      322
      16        2        4      328
      17        1        5       70
      18        2        5      272
      19        2        5      273
      20        2        5      285
      21        1        6       81
      22        3        6      110
      23        2        6      275
      24        2        6      283
      25        1        7       71
      26        3        7      115
      27        2        7      320
      28        2        7      325
      29        1        8       80
      30        2        8      274
      31        2        8      275
      32        2        8      277
      33        1        9       82
      34        3        9      111
      35        3        9      112
      36        2        9      276
      37        1       10       72
      38        2       10      278
      39        2       10      332
      40        2       10      338
      41        3       11      113
      42        3       11      114
      43        2       11      281
      44        2       11      336
      45        1       12       73
      46        3       12      116
      47        2       12      277
      48        2       12      299
      49        3       13      117
      50        3       13      118