Created on Sun Oct 05 23:43:36 2025 

         274 atoms
         294 bonds
         557 angles
         696 dihedrals

           4 atom types
           4 bond types
           9 angle types
           2 dihedral types
           0.000000  14.494141 xlo xhi
           0.000000  13.039092 ylo yhi
           0.000000  16.770982 zlo zhi
          -7.391530   0.991947   1.030780 xy xz yz

Masses

    1    28.085500000 # Si3
    2    12.010700000 # C_3
    3    15.999400000 # O_2
    4     1.007940000 # H_

Bond Coeffs

    1      226.661263        1.866919  # Si3 C_3
    2      365.702108        1.692864  # Si3 O_2
    3      172.712984        1.470529  # Si3 H_
    4      331.069389        1.109401  # C_3 H_

Angle Coeffs

    1                      fourier      157.882480        0.343737        0.374972        0.281246 # C_3 Si3 O_2
    2                      fourier      221.735285        0.343737        0.374972        0.281246 # O_2 Si3 O_2
    3                      fourier       83.380072        0.343737        0.374972        0.281246 # O_2 Si3 H_
    4                      fourier       58.020602        0.343737        0.374972        0.281246 # C_3 Si3 H_
    5                      fourier      114.246973        0.343737        0.374972        0.281246 # C_3 Si3 C_3
    6                      fourier       32.417871        0.343737        0.374972        0.281246 # H_ Si3 H_
    7                      fourier       90.420412        0.343737        0.374972        0.281246 # Si3 C_3 H_
    8                      fourier       75.498766        0.343737        0.374972        0.281246 # H_ C_3 H_
    9              cosine/periodic       88.853997              -1               3 # Si3 O_2 Si3

Dihedral Coeffs

    1        0.089508               1               3 # O_2 Si3 C_3 H_
    2        0.333333               1               3 # C_3 Si3 O_2 Si3

Pair Coeffs

    1        0.402000        3.826410 # Si3 Si3
    2        0.105000        3.430851 # C_3 C_3
    3        0.060000        3.118146 # O_2 O_2
    4        0.044000        2.571134 # H_ H_

Atoms

       1      444        1     0.00000   12.82638    2.16630    4.07580
       2      444        1     0.00000    2.86535    0.79911    7.43059
       3      444        1     0.00000   -0.65412    3.09296    9.44057
       4      444        1     0.00000    0.94880    2.35664    5.41983
       5      444        1     0.00000    1.87585    3.00127   11.28145
       6      444        1     0.00000   -0.23304    4.13371    2.00878
       7      444        1     0.00000   -1.34954    6.24356    0.02657
       8      444        1     0.00000    0.40192    4.90504    7.11073
       9      444        1     0.00000   -1.13001    7.01932    5.42033
      10      444        1     0.00000    0.69454    4.87488   13.54487
      11      444        1     0.00000   11.71529    6.61165   15.01841
      12      444        1     0.00000   -0.27234    7.12884   11.86725
      13      444        1     0.00000   -2.53920    9.11135    7.20180
      14      444        1     0.00000   -5.36927   11.36856    9.25195
      15      444        1     0.00000   -3.44837   11.63335    5.53198
      16      444        1     0.00000   -1.11980    9.96116   12.86297
      17      444        1     0.00000   -2.68034   11.42752   10.67272
      18      444        1     0.00000   -0.28878   13.00985    1.62117
      19      444        1     0.00000    3.60080    2.66123    3.76673
      20      444        1     0.00000    5.67593    2.17185    0.11533
      21      444        1     0.00000    4.26089    3.01777    9.30612
      22      444        1     0.00000    6.13907    3.01483    5.41585
      23      444        1     0.00000    4.08631    2.92904   15.22238
      24      444        1     0.00000    6.42797    2.93312   11.42513
      25      444        1     0.00000    5.04964    4.57297    1.82577
      26      444        1     0.00000    1.01162    6.81432    3.19900
      27      444        1     0.00000    4.84562    7.70806   16.44876
      28      444        1     0.00000    6.44105    4.53217    7.91163
      29      444        1     0.00000    5.21682    5.04543   13.15083
      30      444        1     0.00000    2.09801    7.29280   15.00517
      31      444        1     0.00000   -1.04797   10.85671    3.70929
      32      444        1     0.00000    2.02549   12.63436   15.97855
      33      444        1     0.00000    2.82979    9.17636    7.64442
      34      444        1     0.00000   -0.71484   11.14605    8.50103
      35      444        1     0.00000    1.82474   10.76249    5.21370
      36      444        1     0.00000   11.50158    0.37708    1.88429
      37      444        1     0.00000    8.26432    2.30804    3.36218
      38      444        1     0.00000   12.08581    1.05304    8.01244
      39      444        1     0.00000    9.09749    2.38710    9.93129
      40      444        1     0.00000   13.19127    0.89722   12.89506
      41      444        1     0.00000   11.52632    3.11309   11.45123
      42      444        1     0.00000    9.37362    4.81535    2.14370
      43      444        1     0.00000    6.04412    6.97806    3.46837
      44      444        1     0.00000    8.33002    6.58607   -0.20732
      45      444        1     0.00000    8.59396    7.85667    4.94721
      46      444        1     0.00000    7.07054    7.17122   14.50318
      47      444        1     0.00000    3.86138   10.52397    2.83914
      48      444        1     0.00000    7.35530    9.85556    7.21499
      49      444        1     0.00000    4.07402   11.36498    9.58552
      50      444        1     0.00000    4.70177   11.77353   14.88151
      51      444        1     0.00000    6.61616   11.56068   11.16615
      52      444        2     0.00000   11.66470    2.94024    5.29141
      53      444        2     0.00000    0.96799    2.99210    1.21038
      54      444        2     0.00000   -2.12747    7.59551    1.02241
      55      444        2     0.00000    2.16521    5.40860    7.20585
      56      444        2     0.00000   -2.49699    6.20949    4.48498
      57      444        2     0.00000   -0.05220    3.70824   14.75987
      58      444        2     0.00000   11.20195    4.86617   15.40257
      59      444        2     0.00000   -1.47111    7.09134   10.47029
      60      444        2     0.00000   -3.65172    7.88356    8.01623
      61      444        2     0.00000   -2.27609   10.23957   14.28898
      62      444        2     0.00000   -3.18257   12.74015   11.85425
      63      444        2     0.00000    7.83489    3.13807   15.45515
      64      444        2     0.00000    6.67299    1.51470    6.33653
      65      444        2     0.00000    4.08481    1.08459   15.00887
      66      444        2     0.00000    2.80211    6.82976    3.61338
      67      444        2     0.00000    7.15436    6.13822    8.47384
      68      444        2     0.00000    0.91415   11.16114   16.14965
      69      444        2     0.00000    1.87209    8.29066    8.96667
      70      444        2     0.00000    4.11949    8.15583    6.79128
      71      444        2     0.00000    2.27989   12.46897    5.73294
      72      444        2     0.00000   12.91659    0.26429    0.68699
      73      444        2     0.00000    8.41179    0.80243    9.29003
      74      444        2     0.00000   10.64668    4.59301   12.10228
      75      444        2     0.00000    7.84287    8.31125    0.24075
      76      444        2     0.00000    7.65364    8.01252   12.96157
      77      444        2     0.00000    5.68139   10.58746    3.24757
      78      444        2     0.00000    6.68598   11.41818    6.48715
      79      444        2     0.00000    2.81866   11.32000   10.93741
      80      444        2     0.00000    4.01820   10.35716   13.89830
      81      444        2     0.00000    6.35294   11.36032   15.62712
      82      444        3     0.00000   -0.28502    1.52772    4.74186
      83      444        3     0.00000    1.64359    1.51668    6.63009
      84      444        3     0.00000    0.51545    2.63062   10.46888
      85      444        3     0.00000   -1.25643    3.30758    2.97851
      86      444        3     0.00000   -1.19070    4.86501    0.89604
      87      444        3     0.00000   -0.13259    4.33670    8.54651
      88      444        3     0.00000    0.27933    3.72835    5.97562
      89      444        3     0.00000   -0.62398    6.11288    6.69915
      90      444        3     0.00000    1.61547    4.14923   12.39230
      91      444        3     0.00000   -1.23347    6.88839   15.47618
      92      444        3     0.00000   -0.46042    5.75278   12.77551
      93      444        3     0.00000   -1.70063    8.44497    5.97188
      94      444        3     0.00000   -5.15307   12.80202    8.50919
      95      444        3     0.00000   -3.37234   10.38715    6.57719
      96      444        3     0.00000   -3.58225   13.03881    6.36725
      97      444        3     0.00000   -0.51858    8.44162   12.83804
      98      444        3     0.00000   -3.99470   10.80523    9.90788
      99      444        3     0.00000   -1.94008   10.19327   11.44921
     100      444        3     0.00000    2.05073    2.70720    4.27135
     101      444        3     0.00000    5.83545    0.80276    1.01724
     102      444        3     0.00000    3.75539    1.90386    8.22793
     103      444        3     0.00000    3.01552    3.53148   10.22349
     104      444        3     0.00000    4.53780    2.94833    5.07342
     105      444        3     0.00000    5.08944    3.31218   16.46312
     106      444        3     0.00000    5.41689    2.35235   10.26215
     107      444        3     0.00000    3.84969    3.83799    2.65902
     108      444        3     0.00000    5.97975    3.46975    1.07727
     109      444        3     0.00000    0.53070    5.28261    2.87679
     110      444        3     0.00000    0.15279    7.37748    4.47747
     111      444        3     0.00000    4.35141    5.54897    0.72967
     112      444        3     0.00000    4.91143    4.29107    8.51939
     113      444        3     0.00000    6.40007    4.40591    6.26371
     114      444        3     0.00000    4.57541    3.73605   13.87589
     115      444        3     0.00000    5.97424    4.46183   11.81730
     116      444        3     0.00000    1.71804    5.86073   14.35116
     117      444        3     0.00000    3.59696    7.09018   15.61447
     118      444        3     0.00000    1.12047    7.72914   16.24032
     119      444        3     0.00000   -0.85069   11.63909    2.28788
     120      444        3     0.00000   -2.09498   11.73297    4.62602
     121      444        3     0.00000    0.76167   12.66529    0.43412
     122      444        3     0.00000   -1.42815    9.68682    8.26529
     123      444        3     0.00000   -1.65766   12.02613    9.53305
     124      444        3     0.00000    0.36433   10.71927    4.48565
     125      444        3     0.00000    1.76818    9.78205    6.52797
     126      444        3     0.00000   12.06774    0.93150    3.33315
     127      444        3     0.00000    7.85777    0.85195    2.76341
     128      444        3     0.00000    6.96927    3.07460    4.00270
     129      444        3     0.00000   13.45591    1.81120    8.51040
     130      444        3     0.00000    7.96282    3.05983   10.92167
     131      444        3     0.00000   12.52759    3.60913   10.24823
     132      444        3     0.00000   10.42856    2.05091   10.84673
     133      444        3     0.00000   12.42935    2.29705   12.55063
     134      444        3     0.00000    8.90690    3.23862    2.18439
     135      444        3     0.00000    5.96848    5.47449    2.82033
     136      444        3     0.00000   10.79404    7.69109   15.86339
     137      444        3     0.00000    8.41177    5.66449    1.13706
     138      444        3     0.00000    7.59053    7.49196    3.69861
     139      444        3     0.00000    6.32852    5.75493   14.12529
     140      444        3     0.00000    8.32207    6.84568   15.50407
     141      444        3     0.00000    6.02000    8.09534   15.37126
     142      444        3     0.00000    3.40109   11.96928    2.20498
     143      444        3     0.00000    2.97209   10.18709    4.18589
     144      444        3     0.00000    7.88682    8.86784    6.01558
     145      444        3     0.00000    8.59727   10.23005    8.23125
     146      444        3     0.00000    3.66393   10.42941    8.32559
     147      444        3     0.00000    4.29121   12.87444    9.00920
     148      444        3     0.00000    4.84760   13.10092   13.90633
     149      444        3     0.00000    3.60979   12.19053   16.04302
     150      444        3     0.00000    8.06971   11.64515   10.45728
     151      444        3     0.00000    5.53224   10.84209   10.17631
     152      444        3     0.00000    6.08470   13.06397   11.53768
     153      444        4     0.00000    2.32464    1.77480   11.95860
     154      444        4     0.00000    1.15451    7.16935   11.44759
     155      444        4     0.00000   -4.63523   11.46933    4.66393
     156      444        4     0.00000   11.58060    6.98783   13.59134
     157      444        4     0.00000    0.03389   10.91151   12.90450
     158      444        4     0.00000    3.87974    1.33998    3.16764
     159      444        4     0.00000    2.73230    3.40940   15.53129
     160      444        4     0.00000    6.36639    2.00493   12.57111
     161      444        4     0.00000    0.72770    7.69526    2.03435
     162      444        4     0.00000    3.47058    7.90740    0.39529
     163      444        4     0.00000    7.26359    3.39870    8.39099
     164      444        4     0.00000    4.20333    6.02773   12.72820
     165      444        4     0.00000    2.08495    8.33911   13.97244
     166      444        4     0.00000   -1.61899    9.54118    3.38764
     167      444        4     0.00000    1.78261   13.35460   14.69388
     168      444        4     0.00000   -0.59653   11.89545    7.23128
     169      444        4     0.00000    0.59685   10.89845    9.12645
     170      444        4     0.00000   10.45766    1.29035    1.36813
     171      444        4     0.00000    9.25092    2.07618    4.42472
     172      444        4     0.00000   12.37340    0.53482    6.66323
     173      444        4     0.00000   10.95839    2.01462    7.99973
     174      444        4     0.00000    9.47196    3.42758    8.93788
     175      444        4     0.00000   14.49094    1.19094   13.53086
     176      444        4     0.00000   10.77002    4.86078    1.64963
     177      444        4     0.00000    9.27322    5.36482    3.51743
     178      444        4     0.00000    5.38927    6.96658    4.78884
     179      444        4     0.00000    5.42636    7.91291    2.49546
     180      444        4     0.00000    9.78126    8.52118    4.35076
     181      444        4     0.00000    8.95557    6.60247    5.66115
     182      444        4     0.00000    3.52998    9.47316    1.84546
     183      444        4     0.00000    6.38427    9.09921    8.02938
     184      444        4     0.00000    6.77352   10.77088   12.40395
     185      444        4     0.00000   11.03141    2.18524    5.76664
     186      444        4     0.00000   10.99901    3.63104    4.75937
     187      444        4     0.00000   12.18664    3.51365    6.06685
     188      444        4     0.00000    0.51242    2.51445    0.33745
     189      444        4     0.00000    1.28311    2.20390    1.90517
     190      444        4     0.00000    1.86294    3.52921    0.87425
     191      444        4     0.00000   -2.19483    8.52977    0.45153
     192      444        4     0.00000   -1.54936    7.80863    1.92948
     193      444        4     0.00000   -3.14404    7.30394    1.31605
     194      444        4     0.00000    2.35003    6.18918    6.46166
     195      444        4     0.00000    2.82005    4.56267    6.95893
     196      444        4     0.00000    2.46273    5.78608    8.18858
     197      444        4     0.00000   -2.17720    5.31483    3.94116
     198      444        4     0.00000   -2.90235    6.93055    3.76279
     199      444        4     0.00000   11.18484    5.92984    5.16915
     200      444        4     0.00000    0.65017    2.90540   15.01313
     201      444        4     0.00000   13.52372    3.25542   14.37867
     202      444        4     0.00000   -0.29385    4.26297   15.67542
     203      444        4     0.00000   11.63025    4.14450   14.69806
     204      444        4     0.00000   10.10930    4.77346   15.35942
     205      444        4     0.00000   11.53210    4.58339   16.41255
     206      444        4     0.00000   -1.32680    6.19191    9.85805
     207      444        4     0.00000   -1.34701    7.97987    9.84031
     208      444        4     0.00000   -2.50130    7.09137   10.85344
     209      444        4     0.00000   -3.08044    6.98006    8.26907
     210      444        4     0.00000   10.01921    7.59285    7.35168
     211      444        4     0.00000   -4.08464    8.29691    8.93521
     212      444        4     0.00000   -1.84593    9.90897   15.24137
     213      444        4     0.00000   -3.21499    9.68749   14.14186
     214      444        4     0.00000   -2.51697   11.30887   14.37860
     215      444        4     0.00000    3.78762    0.56252   11.32831
     216      444        4     0.00000   -2.32846   13.09963   12.44186
     217      444        4     0.00000   -3.94513   12.34923   12.54132
     218      444        4     0.00000    7.80906    4.07233   14.88373
     219      444        4     0.00000    7.58418    2.30638   14.78054
     220      444        4     0.00000    8.85718    2.96645   15.81784
     221      444        4     0.00000    7.72921    1.60791    6.61879
     222      444        4     0.00000    6.55711    0.63572    5.68788
     223      444        4     0.00000    6.07512    1.33508    7.23675
     224      444        4     0.00000   -2.31732   13.73479   14.72979
     225      444        4     0.00000    3.35536    0.76255   14.25503
     226      444        4     0.00000    3.80654    0.63450   15.97493
     227      444        4     0.00000    3.06047    7.78646    4.08147
     228      444        4     0.00000    3.37422    6.73666    2.68297
     229      444        4     0.00000    3.07283    5.99907    4.27632
     230      444        4     0.00000    8.23044    6.15902    8.24656
     231      444        4     0.00000    7.03312    6.23003    9.56335
     232      444        4     0.00000    6.69027    7.00934    7.99697
     233      444        4     0.00000    0.16249    9.55624    0.28377
     234      444        4     0.00000    1.01170   10.48966   15.28551
     235      444        4     0.00000   -1.12694   10.45387   -0.55458
     236      444        4     0.00000    2.52980    7.62593    9.54497
     237      444        4     0.00000    1.05397    7.69208    8.54679
     238      444        4     0.00000    1.42704    9.00656    9.66856
     239      444        4     0.00000    3.70161    7.43676    6.08476
     240      444        4     0.00000    4.71923    7.60012    7.52303
     241      444        4     0.00000    4.79018    8.81637    6.22697
     242      444        4     0.00000    2.38166   13.13440    4.86853
     243      444        4     0.00000    3.24882   12.42637    6.24738
     244      444        4     0.00000    1.53506   12.88622    6.41998
     245      444        4     0.00000   13.54247    1.09402   16.44324
     246      444        4     0.00000    6.25690   12.53326    0.96812
     247      444        4     0.00000   13.43483    1.23116    0.66594
     248      444        4     0.00000    0.80137   13.22106   10.16952
     249      444        4     0.00000    1.71461   13.29641    8.64264
     250      444        4     0.00000    7.46674    0.97046    8.76688
     251      444        4     0.00000   10.09876    5.05541   11.26658
     252      444        4     0.00000   11.34798    5.33455   12.49525
     253      444        4     0.00000    9.91593    4.32968   12.87673
     254      444        4     0.00000    8.86757   10.00754   16.13880
     255      444        4     0.00000    8.55711    8.69121    0.98689
     256      444        4     0.00000    6.83901    8.36327    0.67907
     257      444        4     0.00000    6.82257    8.22582   12.27410
     258      444        4     0.00000    8.36378    7.35280   12.44008
     259      444        4     0.00000    8.16998    8.95902   13.17381
     260      444        4     0.00000    6.28641   10.38652    2.35049
     261      444        4     0.00000    5.97193    9.85316    4.00914
     262      444        4     0.00000    5.94923   11.58414    3.62610
     263      444        4     0.00000    6.67546   12.20253    7.25476
     264      444        4     0.00000    5.66130   11.29855    6.11384
     265      444        4     0.00000    7.30931   11.78171    5.65895
     266      444        4     0.00000    2.79791   10.32110   11.39149
     267      444        4     0.00000    1.81454   11.53002   10.55665
     268      444        4     0.00000    3.05064   12.05626   11.71827
     269      444        4     0.00000    4.03504    9.44502   14.50197
     270      444        4     0.00000    4.60716   10.14969   12.99523
     271      444        4     0.00000    2.97995   10.54143   13.59655
     272      444        4     0.00000    6.89535   10.69693   14.93986
     273      444        4     0.00000    6.23105   10.81730   16.57287
     274      444        4     0.00000    6.97155   12.24536   15.81353

Bonds

       1        1        1       52
       2        2        1       82
       3        2        1       85
       4        2        1      126
       5        2        2       83
       6        2        2       94
       7        2        2       96
       8        2        2      102
       9        2        3       84
      10        2        3       87
      11        2        3      129
      12        2        3      131
      13        2        4       82
      14        2        4       83
      15        2        4       88
      16        2        4      100
      17        2        5       84
      18        2        5       90
      19        2        5      103
      20        3        5      153
      21        1        6       53
      22        2        6       85
      23        2        6       86
      24        2        6      109
      25        1        7       54
      26        2        7       86
      27        2        7       91
      28        2        7      118
      29        1        8       55
      30        2        8       87
      31        2        8       88
      32        2        8       89
      33        1        9       56
      34        2        9       89
      35        2        9       93
      36        2        9      110
      37        1       10       57
      38        2       10       90
      39        2       10       92
      40        2       10      116
      41        1       11       58
      42        2       11       91
      43        2       11      136
      44        3       11      156
      45        1       12       59
      46        2       12       92
      47        2       12       97
      48        3       12      154
      49        1       13       60
      50        2       13       93
      51        2       13       95
      52        2       13      122
      53        2       14       94
      54        2       14       98
      55        2       14      145
      56        2       14      150
      57        2       15       95
      58        2       15       96
      59        2       15      120
      60        3       15      155
      61        1       16       61
      62        2       16       97
      63        2       16       99
      64        3       16      157
      65        1       17       62
      66        2       17       98
      67        2       17       99
      68        2       17      123
      69        2       18      101
      70        2       18      119
      71        2       18      121
      72        2       18      127
      73        2       19      100
      74        2       19      104
      75        2       19      107
      76        3       19      158
      77        1       20       63
      78        2       20      101
      79        2       20      105
      80        2       20      108
      81        2       21      102
      82        2       21      103
      83        2       21      106
      84        2       21      112
      85        1       22       64
      86        2       22      104
      87        2       22      113
      88        2       22      128
      89        1       23       65
      90        2       23      105
      91        2       23      114
      92        3       23      159
      93        2       24      106
      94        2       24      115
      95        2       24      130
      96        3       24      160
      97        2       25      107
      98        2       25      108
      99        2       25      111
     100        2       25      135
     101        1       26       66
     102        2       26      109
     103        2       26      110
     104        3       26      161
     105        2       27      111
     106        2       27      117
     107        2       27      141
     108        3       27      162
     109        1       28       67
     110        2       28      112
     111        2       28      113
     112        3       28      163
     113        2       29      114
     114        2       29      115
     115        2       29      139
     116        3       29      164
     117        2       30      116
     118        2       30      117
     119        2       30      118
     120        3       30      165
     121        2       31      119
     122        2       31      120
     123        2       31      124
     124        3       31      166
     125        1       32       68
     126        2       32      121
     127        2       32      149
     128        3       32      167
     129        1       33       69
     130        1       33       70
     131        2       33      125
     132        2       33      146
     133        2       34      122
     134        2       34      123
     135        3       34      168
     136        3       34      169
     137        1       35       71
     138        2       35      124
     139        2       35      125
     140        2       35      143
     141        1       36       72
     142        2       36      126
     143        2       36      142
     144        3       36      170
     145        2       37      127
     146        2       37      128
     147        2       37      134
     148        3       37      171
     149        2       38      129
     150        2       38      147
     151        3       38      172
     152        3       38      173
     153        1       39       73
     154        2       39      130
     155        2       39      132
     156        3       39      174
     157        2       40      133
     158        2       40      148
     159        2       40      152
     160        3       40      175
     161        1       41       74
     162        2       41      131
     163        2       41      132
     164        2       41      133
     165        2       42      134
     166        2       42      137
     167        3       42      176
     168        3       42      177
     169        2       43      135
     170        2       43      138
     171        3       43      178
     172        3       43      179
     173        1       44       75
     174        2       44      136
     175        2       44      137
     176        2       44      140
     177        2       45      138
     178        2       45      144
     179        3       45      180
     180        3       45      181
     181        1       46       76
     182        2       46      139
     183        2       46      140
     184        2       46      141
     185        1       47       77
     186        2       47      142
     187        2       47      143
     188        3       47      182
     189        1       48       78
     190        2       48      144
     191        2       48      145
     192        3       48      183
     193        1       49       79
     194        2       49      146
     195        2       49      147
     196        2       49      151
     197        1       50       80
     198        1       50       81
     199        2       50      148
     200        2       50      149
     201        2       51      150
     202        2       51      151
     203        2       51      152
     204        3       51      184
     205        4       52      185
     206        4       52      186
     207        4       52      187
     208        4       53      188
     209        4       53      189
     210        4       53      190
     211        4       54      191
     212        4       54      192
     213        4       54      193
     214        4       55      194
     215        4       55      195
     216        4       55      196
     217        4       56      197
     218        4       56      198
     219        4       56      199
     220        4       57      200
     221        4       57      201
     222        4       57      202
     223        4       58      203
     224        4       58      204
     225        4       58      205
     226        4       59      206