Created on Sun Oct 05 23:43:59 2025 

         386 atoms
         411 bonds
         781 angles
         987 dihedrals

           4 atom types
           4 bond types
           9 angle types
           2 dihedral types
           0.000000  16.722229 xlo xhi
           0.000000  13.589011 ylo yhi
           0.000000  17.316128 zlo zhi
          -7.346396  -0.307144  -0.017989 xy xz yz

Masses

    1    28.085500000 # Si3
    2     1.007940000 # H_
    3    12.010700000 # C_3
    4    15.999400000 # O_2

Bond Coeffs

    1      172.712984        1.470529  # Si3 H_
    2      226.661263        1.866919  # Si3 C_3
    3      365.702108        1.692864  # Si3 O_2
    4      331.069389        1.109401  # H_ C_3

Angle Coeffs

    1                      fourier       58.020602        0.343737        0.374972        0.281246 # H_ Si3 C_3
    2                      fourier       83.380072        0.343737        0.374972        0.281246 # H_ Si3 O_2
    3                      fourier      157.882480        0.343737        0.374972        0.281246 # C_3 Si3 O_2
    4                      fourier      221.735285        0.343737        0.374972        0.281246 # O_2 Si3 O_2
    5                      fourier      114.246973        0.343737        0.374972        0.281246 # C_3 Si3 C_3
    6                      fourier       32.417871        0.343737        0.374972        0.281246 # H_ Si3 H_
    7                      fourier       90.420412        0.343737        0.374972        0.281246 # Si3 C_3 H_
    8                      fourier       75.498766        0.343737        0.374972        0.281246 # H_ C_3 H_
    9              cosine/periodic       88.853997              -1               3 # Si3 O_2 Si3

Dihedral Coeffs

    1        0.089508               1               3 # H_ Si3 C_3 H_
    2        0.333333               1               3 # H_ Si3 O_2 Si3

Pair Coeffs

    1        0.402000        3.826410 # Si3 Si3
    2        0.044000        2.571134 # H_ H_
    3        0.105000        3.430851 # C_3 C_3
    4        0.060000        3.118146 # O_2 O_2

Atoms

       1      444        1     0.00000   -0.24020    1.09523    3.07462
       2      444        1     0.00000    0.32466    2.88140   16.93813
       3      444        1     0.00000   -0.82702    3.45206    7.92360
       4      444        1     0.00000   -5.67546   12.60032    4.52403
       5      444        1     0.00000   -5.92084   13.35895   14.56260
       6      444        1     0.00000   14.55114    2.02464   15.65369
       7      444        1     0.00000   11.89860    7.73252   10.27442
       8      444        1     0.00000   -0.87736    7.49765    5.86322
       9      444        1     0.00000   -0.84666    4.43117   13.93630
      10      444        1     0.00000   -4.02145    8.28867   16.15842
      11      444        1     0.00000   -2.55818    8.35939    8.28293
      12      444        1     0.00000    9.64583   12.09053   10.20784
      13      444        1     0.00000   -3.03246    9.64254   13.50194
      14      444        1     0.00000   -6.49352   11.76496   17.13559
      15      444        1     0.00000   -4.71173   11.75826   12.33149
      16      444        1     0.00000    1.99612   13.17632    2.55546
      17      444        1     0.00000    4.13503    0.59874    3.72278
      18      444        1     0.00000    7.66936    3.51709    0.39689
      19      444        1     0.00000    3.67732    2.05134    8.53562
      20      444        1     0.00000    6.57933    1.63935    5.29775
      21      444        1     0.00000    0.96382   12.99052   12.81243
      22      444        1     0.00000    7.77945    2.05853   11.13491
      23      444        1     0.00000    5.43647    4.88627    1.57107
      24      444        1     0.00000    1.88954    6.71553    4.92701
      25      444        1     0.00000    3.23688    6.34430    0.20906
      26      444        1     0.00000    5.88145    3.94168    7.10119
      27      444        1     0.00000    2.36677    6.58523    9.58936
      28      444        1     0.00000    4.92188    6.86857    6.08205
      29      444        1     0.00000    6.34864    4.18235   13.09875
      30      444        1     0.00000    0.48243    6.71496   15.84715
      31      444        1     0.00000    5.09992    6.15919   10.94757
      32      444        1     0.00000    2.87079    8.10781    2.57945
      33      444        1     0.00000    0.07516   11.04593    3.88870
      34      444        1     0.00000    2.98111   10.89501    0.92565
      35      444        1     0.00000    3.75942    8.94887    7.91948
      36      444        1     0.00000   -0.51849   10.14975    9.57729
      37      444        1     0.00000    2.54262   10.99698    5.84710
      38      444        1     0.00000    2.19386    8.79631   14.22475
      39      444        1     0.00000   -0.98484   11.75414   14.67824
      40      444        1     0.00000    1.65923   10.23951   11.60660
      41      444        1     0.00000    6.24995   13.55559    2.20140
      42      444        1     0.00000   12.49905    2.34836    0.42738
      43      444        1     0.00000   13.91154    1.05876    7.32374
      44      444        1     0.00000   10.22140    2.64513    9.12648
      45      444        1     0.00000   12.49200    2.96460    5.22904
      46      444        1     0.00000    5.72649   13.12864   14.06142
      47      444        1     0.00000    9.73394    2.97358   15.85248
      48      444        1     0.00000   12.55742    3.27229   11.16752
      49      444        1     0.00000   12.08781    5.23972    1.51331
      50      444        1     0.00000    6.78574    6.67114    3.57521
      51      444        1     0.00000    9.97056    6.88485   16.91748
      52      444        1     0.00000   11.11508    4.77076    7.15566
      53      444        1     0.00000    7.34388    5.38015    9.03805
      54      444        1     0.00000   10.41153    7.78429    6.23521
      55      444        1     0.00000   11.02289    4.59348   13.39809
      56      444        1     0.00000    7.65210    6.35958   14.90430
      57      444        1     0.00000    9.49377    6.17165   11.13242
      58      444        1     0.00000    8.56470    8.60856    1.71267
      59      444        1     0.00000    5.25836   11.62799    4.37191
      60      444        1     0.00000    7.72733   11.34564    0.50941
      61      444        1     0.00000    9.03078   10.20733    7.82008
      62      444        1     0.00000    4.25179   10.95663   10.27714
      63      444        1     0.00000    7.66069   12.22283    5.83192
      64      444        1     0.00000    8.43443    8.51769   12.84578
      65      444        1     0.00000    4.36124   10.70944   15.62344
      66      444        1     0.00000    7.05244   11.26211   11.90238
      67      444        2     0.00000    0.34835    1.64891    1.84917
      68      444        2     0.00000    0.77111    3.49142   15.65009
      69      444        2     0.00000    0.48098    2.77371    7.73989
      70      444        2     0.00000   11.18656    9.01769   10.10181
      71      444        2     0.00000   -0.81492    8.93847    5.56327
      72      444        2     0.00000   -1.65420    5.01397   12.83982
      73      444        2     0.00000    0.35530    3.75321   13.38717
      74      444        2     0.00000    8.17181    3.14490    1.74443
      75      444        2     0.00000    2.37213    2.16541    7.83411
      76      444        2     0.00000    7.34704    1.67181    4.03000
      77      444        2     0.00000    6.63484    1.59432   10.32154
      78      444        2     0.00000    3.18374    1.73186    3.55313
      79      444        2     0.00000    1.14632    6.91077   10.36204
      80      444        2     0.00000   -0.42851    7.10660   16.93933
      81      444        2     0.00000    2.33967   12.15100    6.74519
      82      444        2     0.00000    0.11611   10.78516   14.82515
      83      444        2     0.00000   10.22844    1.45230    8.25699
      84      444        2     0.00000   12.14291    2.46039    3.89201
      85      444        2     0.00000   13.66805    3.87209    5.14668
      86      444        2     0.00000    2.03275   12.84207   13.80809
      87      444        2     0.00000   -1.09466    4.26985    6.70603
      88      444        2     0.00000   12.91626    4.67326   10.81849
      89      444        2     0.00000   -4.10856    7.64567   11.56411
      90      444        2     0.00000    9.40881    7.82645    5.14286
      91      444        2     0.00000   11.77522    8.09044    5.73749
      92      444        2     0.00000   -3.27987    7.01528   16.02807
      93      444        2     0.00000    6.65584    6.59752   15.95307
      94      444        2     0.00000    9.67328    9.24189    2.44209
      95      444        2     0.00000    4.21211    7.89989    3.10464
      96      444        2     0.00000    3.65699   12.26348    9.95549
      97      444        2     0.00000    8.13230   12.36775    4.45080
      98      444        2     0.00000   10.26329   10.38177   16.59302
      99      444        2     0.00000    7.13378   11.43335   16.39037
     100      444        2     0.00000    2.27383    1.19596    0.43077
     101      444        2     0.00000    2.21581    2.61076    1.50309
     102      444        2     0.00000    3.05401    2.72277   -0.05868
     103      444        2     0.00000   -0.94248    4.76257    0.08675
     104      444        2     0.00000    0.47126    4.84659    1.16122
     105      444        2     0.00000   -0.82902    3.66557    1.46484
     106      444        2     0.00000   -1.88037    4.67543    9.81192
     107      444        2     0.00000   -0.48402    5.54330    9.18165
     108      444        2     0.00000   -0.23402    4.15036   10.25461
     109      444        2     0.00000    9.85494   10.39348    4.44145
     110      444        2     0.00000   -5.21696   10.27776    5.09563
     111      444        2     0.00000   -5.46229   10.46547    3.34878
     112      444        2     0.00000    2.13692    0.65831    6.25083
     113      444        2     0.00000   -5.30899   12.61959    6.94978
     114      444        2     0.00000    0.56049   -0.05192    6.60132
     115      444        2     0.00000   16.16751    0.00346   13.06278
     116      444        2     0.00000    0.84688    0.95608   12.50460
     117      444        2     0.00000   -0.12557    1.54711   13.84256
     118      444        2     0.00000    3.61960    0.84349   14.27505
     119      444        2     0.00000    3.26126    0.65374   15.99986
     120      444        2     0.00000    2.49505    1.95081   15.06957
     121      444        2     0.00000   -1.84552    5.49400    4.77982
     122      444        2     0.00000   -1.13793    6.60864    3.57987
     123      444        2     0.00000   -2.71196    6.97781    4.31895
     124      444        2     0.00000   -3.08490   10.44555   -0.13443
     125      444        2     0.00000   -1.83458    9.20360    0.10959
     126      444        2     0.00000   -3.28714    9.21632    1.13365
     127      444        2     0.00000   -4.27018   10.08756    8.01389
     128      444        2     0.00000   -3.63091    9.63223    6.42754
     129      444        2     0.00000   -2.70469   10.72240    7.46787
     130      444        2     0.00000   -0.28512    0.46617    8.85242
     131      444        2     0.00000    1.42988    0.45454    9.26013
     132      444        2     0.00000    0.22279    0.95679   10.47821
     133      444        2     0.00000   -1.63939    8.49253   11.79902
     134      444        2     0.00000   -2.22194    7.36535   13.03515
     135      444        2     0.00000   -0.88913    8.47310   13.40634
     136      444        2     0.00000   -3.82845   12.42458    0.24187
     137      444        2     0.00000   -4.45486   11.36884    1.52612
     138      444        2     0.00000   -4.95156   13.05816    1.47589
     139      444        2     0.00000   11.04722    0.72594    3.90744
     140      444        2     0.00000    9.67814    0.26947    4.92961
     141      444        2     0.00000    9.54221    1.66708    3.84087
     142      444        2     0.00000    6.15827    0.58404    2.27993
     143      444        2     0.00000    4.66006    0.51548    1.30875
     144      444        2     0.00000   -2.10379   12.66515    2.15288
     145      444        2     0.00000    8.86513   -0.03165    0.18326
     146      444        2     0.00000    9.55388    1.40796    0.94382
     147      444        2     0.00000    7.83826    0.98980    1.21230
     148      444        2     0.00000    5.99761    1.67571    0.33056
     149      444        2     0.00000    6.63390    1.68474   16.15508
     150      444        2     0.00000    5.38290    2.90887   16.43836
     151      444        2     0.00000    5.25073    0.15023    8.88058
     152      444        2     0.00000    4.48334    0.09286    7.27012
     153      444        2     0.00000   -3.76621   13.16022    8.70322
     154      444        2     0.00000    8.47687    1.33061    6.77828
     155      444        2     0.00000    0.39791   13.34066    6.43180
     156      444        2     0.00000    6.98724    0.84827    7.61214
     157      444        2     0.00000    4.36517    2.26270   10.90222
     158      444        2     0.00000    2.59394    2.15978   10.76982
     159      444        2     0.00000    3.42744    3.67991   10.38209
     160      444        2     0.00000    6.17770    2.93284    2.88939
     161      444        2     0.00000    4.66649    2.62828    1.98147
     162      444        2     0.00000    4.63638    3.60650    3.46342
     163      444        2     0.00000    2.49744    4.92182    3.37121
     164      444        2     0.00000    0.75457    4.87754    3.69746
     165      444        2     0.00000    1.90358    4.27471    4.91856
     166      444        2     0.00000    1.82531    4.31214    8.84963
     167      444        2     0.00000    3.06441    5.03875    7.81096
     168      444        2     0.00000    1.35952    5.51724    7.62232
     169      444        2     0.00000    5.45583    2.18966   14.29370
     170      444        2     0.00000    4.35131    2.83185   13.06159
     171      444        2     0.00000    4.48063    3.64646   14.62565
     172      444        2     0.00000    0.38393    9.36767    2.01445
     173      444        2     0.00000   -1.19313   10.17883    2.03471
     174      444        2     0.00000   -0.86691    8.86392    3.17103
     175      444        2     0.00000   -1.67380   10.61246    5.49498
     176      444        2     0.00000   -2.33045   11.54487    4.16269
     177      444        2     0.00000   -1.41292   12.35996    5.43552
     178      444        2     0.00000    0.40109   10.07611    7.27672
     179      444        2     0.00000    0.90181   11.52098    8.18829
     180      444        2     0.00000   -0.71186   11.44800    7.47615
     181      444        2     0.00000   -1.60906   11.21054   11.55311
     182      444        2     0.00000   -2.49699   11.45121   10.04176
     183      444        2     0.00000   -1.04539   12.41905   10.38699
     184      444        2     0.00000   -3.40775   13.25211   10.82059
     185      444        2     0.00000   -2.71033   13.22279   12.45062
     186      444        2     0.00000    3.13562    0.52617   12.13125
     187      444        2     0.00000    6.75403    7.89150   10.93164
     188      444        2     0.00000    5.36656    8.47838   11.86200
     189      444        2     0.00000    5.29959    8.39797   10.09397
     190      444        2     0.00000    2.67287    6.78016   12.97530
     191      444        2     0.00000    3.59498    6.76232   14.48492
     192      444        2     0.00000    4.14191    7.75153   13.11685
     193      444        2     0.00000    0.88338    9.99429   16.82880
     194      444        2     0.00000    1.22842   11.68038   16.44014
     195      444        2     0.00000    0.58398   11.30090    0.58000
     196      444        2     0.00000   -1.87859   11.85095   16.95008
     197      444        2     0.00000   -2.34020   13.28434   16.00017
     198      444        2     0.00000   -0.72102   13.16547   16.71373
     199      444        2     0.00000   -0.78185    1.81502    5.33636
     200      444        2     0.00000   -0.82892    3.20676    4.22782
     201      444        2     0.00000    0.73126    2.56488    4.80147
     202      444        2     0.00000    8.59997    0.80560   15.60361
     203      444        2     0.00000    9.64773    1.22309   14.23891
     204      444        2     0.00000    8.05199    1.97963   14.36504
     205      444        2     0.00000   11.38912    1.12249   13.11892
     206      444        2     0.00000    3.81846   13.02401   12.59572
     207      444        2     0.00000   12.42096    0.43268   11.85661
     208      444        2     0.00000   -1.74387    2.87358   11.24355
     209      444        2     0.00000   14.15058    1.39864   10.73647
     210      444        2     0.00000   14.15219    1.88418   12.45366
     211      444        2     0.00000   12.09498    5.70046    3.92785
     212      444        2     0.00000   10.54785    4.97901    3.45748
     213      444        2     0.00000   10.88065    6.68786    3.09029
     214      444        2     0.00000   -3.04198    7.14199    1.63643
     215      444        2     0.00000   -2.57346    6.01135    0.34876
     216      444        2     0.00000   -2.29765    5.59074    2.04860
     217      444        2     0.00000   13.49445    5.42993    7.16715
     218      444        2     0.00000   13.19329    3.85003    7.93579
     219      444        2     0.00000   12.82919    5.34775    8.80177
     220      444        2     0.00000    8.74042    5.69017    4.69584
     221      444        2     0.00000    8.43483    4.94588    3.11379
     222      444        2     0.00000    7.44245    4.49272    4.52043
     223      444        2     0.00000   12.97907    5.95676   12.90980
     224      444        2     0.00000   12.99314    5.39142   14.59976
     225      444        2     0.00000   11.94646    6.74977   14.10362
     226      444        2     0.00000    3.66929    8.45864   16.58539
     227      444        2     0.00000    4.81301    7.15504   16.17361
     228      444        2     0.00000    5.10589    7.86812    0.48158
     229      444        2     0.00000    6.99956   10.29641    3.39481
     230      444        2     0.00000    5.50647   10.03350    2.47610
     231      444        2     0.00000    5.72596    9.29490    4.08733
     232      444        2     0.00000    6.93223    7.48345    7.89449
     233      444        2     0.00000    8.02616    6.44486    6.96311
     234      444        2     0.00000    8.63285    7.34069    8.37358
     235      444        2     0.00000    7.47624    9.17425    9.45670
     236      444        2     0.00000    6.72285    9.37732    7.84717
     237      444        2     0.00000    6.99525   10.77699    8.87547
     238      444        2     0.00000    6.37787   13.11260    9.20583
     239      444        2     0.00000    5.09830   12.83804    7.99723
     240      444        2     0.00000   12.30904    0.60119    9.15502
     241      444        2     0.00000    9.68753    9.85601   14.49443
     242      444        2     0.00000   10.58840    9.58422   12.99175
     243      444        2     0.00000   10.44085    8.28646   14.17838
     244      444        2     0.00000    5.45629    8.76215   14.60210
     245      444        2     0.00000    6.20616    9.13373   16.16036
     246      444        2     0.00000    6.57055   10.12435   14.73916
     247      444        3     0.00000    2.18946    2.28532    0.45649
     248      444        3     0.00000   -0.24328    4.16404    0.68068
     249      444        3     0.00000   -0.85755    4.54429    9.43949
     250      444        3     0.00000   -5.84354   10.76327    4.33487
     251      444        3     0.00000    1.56422   -0.28004    6.23692
     252      444        3     0.00000    0.27826    0.63588   13.38983
     253      444        3     0.00000    2.82582    0.90488   15.02654
     254      444        3     0.00000   -1.71627    6.55243    4.51208
     255      444        3     0.00000   -2.91810    9.39335    0.11552
     256      444        3     0.00000   -3.34890    9.83567    7.46751
     257      444        3     0.00000    0.42796    0.25564    9.65918
     258      444        3     0.00000   -1.84294    8.38049   12.87111
     259      444        3     0.00000   -4.71151   12.19227    0.84851
     260      444        3     0.00000    9.95797    0.65499    3.94203
     261      444        3     0.00000    5.14889    0.16627    2.22569
     262      444        3     0.00000    8.84437    0.58681    1.08548
     263      444        3     0.00000    6.17073    2.31532   16.91696
     264      444        3     0.00000    4.31122    0.30450    8.33415
     265      444        3     0.00000    7.52093    0.80123    6.65407
     266      444        3     0.00000    3.49747    2.58761   10.31425
     267      444        3     0.00000    5.22294    3.36306    2.56814
     268      444        3     0.00000    1.73671    5.04537    4.15402
     269      444        3     0.00000    2.13034    5.23799    8.34973
     270      444        3     0.00000    5.05548    3.11041   13.85811
     271      444        3     0.00000   -0.41474    9.72711    2.66838
     272      444        3     0.00000   -1.46430   11.45369    4.82651
     273      444        3     0.00000    0.05918   10.84906    7.97373
     274      444        3     0.00000   -1.49399   11.42336   10.48682
     275      444        3     0.00000   -3.64938   13.20477   11.88418
     276      444        3     0.00000    5.66344    7.89224   10.99122
     277      444        3     0.00000    3.26174    7.40364   13.66320
     278      444        3     0.00000    1.42522   10.99001   -0.04850
     279      444        3     0.00000   -1.51808   12.59643   16.23053
     280      444        3     0.00000   -0.28125    2.29092    4.48476
     281      444        3     0.00000    8.91039    1.62074   14.94207
     282      444        3     0.00000   11.90930    0.21456   12.79937
     283      444        3     0.00000   14.09341    2.25112   11.42329
     284      444        3     0.00000   11.32569    5.68212    3.14362
     285      444        3     0.00000   -2.99257    6.08209    1.35687
     286      444        3     0.00000   12.81509    4.87237    7.82180
     287      444        3     0.00000    7.95301    5.32467    4.02493
     288      444        3     0.00000   12.35809    5.78338   13.79659
     289      444        3     0.00000    4.15840    7.55556   16.95303
     290      444        3     0.00000    5.91244   10.18446    3.47874
     291      444        3     0.00000    7.77605    6.80022    7.96767
     292      444        3     0.00000    7.41574    9.81056    8.57038
     293      444        3     0.00000   13.00412    0.02246    8.54080
     294      444        3     0.00000    9.91092    9.12015   13.71321
     295      444        3     0.00000    5.77668    9.57787   15.25731
     296      444        4     0.00000   -6.67567   13.37983    3.46762
     297      444        4     0.00000   -0.78186    1.70202   16.45922
     298      444        4     0.00000   -1.84201    3.31754   14.66593
     299      444        4     0.00000   -3.73935    7.52620    9.05512
     300      444        4     0.00000   -1.76749    7.34500    7.24614
     301      444        4     0.00000   -3.95906    9.03539   14.70392
     302      444        4     0.00000   -6.70072   12.80994   15.89484
     303      444        4     0.00000   -5.94473   11.63916   11.27564
     304      444        4     0.00000   -3.99761   10.27203   12.32250
     305      444        4     0.00000   -5.30062   12.00910   13.83673
     306      444        4     0.00000   -4.11369   12.86978    4.05675
     307      444        4     0.00000    5.11022    0.95319    5.01034
     308      444        4     0.00000    8.36231    0.80477   12.00307
     309      444        4     0.00000    6.78227    4.89931    0.62246
     310      444        4     0.00000    0.69005    6.97737    6.02954
     311      444        4     0.00000    4.07022    5.00845    0.66174
     312      444        4     0.00000    4.70255    3.08723    7.77368
     313      444        4     0.00000    6.33172    3.21446    5.71434
     314      444        4     0.00000    3.37591    6.76553    5.60584
     315      444        4     0.00000    5.34447    5.43512    6.71577
     316      444        4     0.00000    7.29241    3.25672   12.12257
     317      444        4     0.00000   -0.35581    5.73218   14.83855
     318      444        4     0.00000    1.79993    5.89408   16.41169
     319      444        4     0.00000    3.48018    6.08036   10.70589
     320      444        4     0.00000    5.52242    5.33486   12.28910
     321      444        4     0.00000    1.80146    7.93125    3.81338
     322      444        4     0.00000    2.41930    6.95299    1.49494
     323      444        4     0.00000    0.66132   12.33243    3.04379
     324      444        4     0.00000    2.86814    9.55217    1.85660
     325      444        4     0.00000    3.16204   12.13757    1.97426
     326      444        4     0.00000    2.84165    7.96432    8.81382
     327      444        4     0.00000    4.95623    8.07101    7.20519
     328      444        4     0.00000   -1.46321    8.81081    9.40631
     329      444        4     0.00000    1.22523   10.61002    4.98942
     330      444        4     0.00000    2.91644    9.67881    6.74086
     331      444        4     0.00000    1.02064    8.13024   15.19463
     332      444        4     0.00000   -2.27923   10.96676   14.09845
     333      444        4     0.00000   -0.49688   12.87754   13.55517
     334      444        4     0.00000    0.80345    9.60421   10.39624
     335      444        4     0.00000    1.35154    9.41634   12.96443
     336      444        4     0.00000    1.20615   11.80086   11.72110
     337      444        4     0.00000   14.92674    0.75089    2.68412
     338      444        4     0.00000   13.45743    2.53862   16.74224
     339      444        4     0.00000   12.66224    0.98504    1.31989
     340      444        4     0.00000   14.74657    2.25686    8.05784
     341      444        4     0.00000    8.97300    2.55291   10.15818
     342      444        4     0.00000   12.88494    1.70201    6.21344
     343      444        4     0.00000   13.94304    0.71459   14.85975
     344      444        4     0.00000   10.85767    2.26282   16.81794
     345      444        4     0.00000    8.66192    3.80875   16.77391
     346      444        4     0.00000   11.63087    2.64559    9.95918
     347      444        4     0.00000   12.36977    3.61462    1.43899
     348      444        4     0.00000    5.58303    6.16711    2.57241
     349      444        4     0.00000    5.99134    7.25870    4.90666
     350      444        4     0.00000   11.12299    7.97752   16.52632
     351      444        4     0.00000   11.04151    5.63979    0.29044
     352      444        4     0.00000   10.11512    4.00434    8.21650
     353      444        4     0.00000   11.19165    3.81292    5.80097
     354      444        4     0.00000    7.19232    4.03241    8.08635
     355      444        4     0.00000    5.83042    5.44617    9.67270
     356      444        4     0.00000   10.46871    6.24112    6.80468
     357      444        4     0.00000   10.41604    3.98248   14.77499
     358      444        4     0.00000   11.63824    3.33580   12.53554
     359      444        4     0.00000    7.33535    4.91007   14.19883
     360      444        4     0.00000    9.15505    6.44752   15.57129
     361      444        4     0.00000   10.82280    6.47210   10.21847
     362      444        4     0.00000    8.40999    5.30873   10.28420
     363      444        4     0.00000    9.86891    5.34034   12.48372
     364      444        4     0.00000    7.61109    7.84579    2.79006
     365      444        4     0.00000    9.19648    7.55789    0.63569
     366      444        4     0.00000    5.46772   13.03827    3.54091
     367      444        4     0.00000    3.70725   11.42223    4.80124
     368      444        4     0.00000    9.22746   11.91492    0.81741
     369      444        4     0.00000    7.67630    9.75344    0.93505
     370      444        4     0.00000    6.64593   12.24590    1.31864
     371      444        4     0.00000    9.99857    8.95632    7.33196
     372      444        4     0.00000    9.86778   11.09761    8.91490
     373      444        4     0.00000    4.40963   10.10258    8.88494
     374      444        4     0.00000    3.26173   10.15285   11.30882
     375      444        4     0.00000    6.09979   11.72263    5.80250
     376      444        4     0.00000    8.67976   11.15512    6.51992
     377      444        4     0.00000   15.03594    0.08558    6.59452
     378      444        4     0.00000    7.50984    7.53073   13.77200
     379      444        4     0.00000    8.86947    7.63696   11.51574
     380      444        4     0.00000    2.99546   10.07961   14.89310
     381      444        4     0.00000    4.79687   12.21840   15.08860
     382      444        4     0.00000    3.96906   10.83228   17.22297
     383      444        4     0.00000    8.16892   11.93300   10.92421
     384      444        4     0.00000    5.67142   11.17010   11.03813
     385      444        4     0.00000    7.51885    9.77931   12.34725
     386      444        4     0.00000    6.81470   12.16628   13.25108

Bonds

       1        1        1       67
       2        2        1      280