Created on Sun Oct 05 23:43:42 2025 

         366 atoms
         408 bonds
         792 angles
        1080 dihedrals

           4 atom types
           3 bond types
           6 angle types
           2 dihedral types
           0.000000  15.508641 xlo xhi
           0.000000  13.422386 ylo yhi
           0.000000  16.909023 zlo zhi
          -8.253875   0.616249  -0.649062 xy xz yz

Masses

    1    28.085500000 # Si3
    2    12.010700000 # C_3
    3    15.999400000 # O_2
    4     1.007940000 # H_

Bond Coeffs

    1      226.661263        1.866919  # Si3 C_3
    2      365.702108        1.692864  # Si3 O_2
    3      331.069389        1.109401  # C_3 H_

Angle Coeffs

    1                      fourier      157.882480        0.343737        0.374972        0.281246 # C_3 Si3 O_2
    2                      fourier      221.735285        0.343737        0.374972        0.281246 # O_2 Si3 O_2
    3                      fourier      114.246973        0.343737        0.374972        0.281246 # C_3 Si3 C_3
    4                      fourier       90.420412        0.343737        0.374972        0.281246 # Si3 C_3 H_
    5                      fourier       75.498766        0.343737        0.374972        0.281246 # H_ C_3 H_
    6              cosine/periodic       88.853997              -1               3 # Si3 O_2 Si3

Dihedral Coeffs

    1        0.089508               1               3 # O_2 Si3 C_3 H_
    2        0.333333               1               3 # C_3 Si3 O_2 Si3

Pair Coeffs

    1        0.402000        3.826410 # Si3 Si3
    2        0.105000        3.430851 # C_3 C_3
    3        0.060000        3.118146 # O_2 O_2
    4        0.044000        2.571134 # H_ H_

Atoms

       1      444        1     0.00000   -5.19777   12.98474    7.99202
       2      444        1     0.00000   14.25136    2.03367    9.32088
       3      444        1     0.00000    0.98320    2.50185    5.03033
       4      444        1     0.00000   -5.84030   12.65846   12.75206
       5      444        1     0.00000   14.55355    1.55199   14.97647
       6      444        1     0.00000    1.29470    1.54820   11.08887
       7      444        1     0.00000   -3.83548    6.38713    3.30656
       8      444        1     0.00000   -0.78687    6.01424   16.19467
       9      444        1     0.00000    0.08913    4.14262    7.55284
      10      444        1     0.00000   -3.45077    6.21664    9.52071
      11      444        1     0.00000    0.28724    3.78002   13.17583
      12      444        1     0.00000   11.75552    6.16591   15.10963
      13      444        1     0.00000   -1.32396    6.15124   11.72943
      14      444        1     0.00000    8.84873   10.53323    3.94116
      15      444        1     0.00000   -3.39967   10.85427   16.70912
      16      444        1     0.00000   -2.63546    8.86102    7.71714
      17      444        1     0.00000   -6.31147   10.47373    9.50104
      18      444        1     0.00000   -4.13286   10.98596    5.89533
      19      444        1     0.00000   -2.74089    8.32319   13.44389
      20      444        1     0.00000   -4.00896   10.44160   11.37010
      21      444        1     0.00000    7.72254    0.00683    1.90078
      22      444        1     0.00000    3.89705    2.08183    4.59349
      23      444        1     0.00000    6.82436    2.84971    0.75228
      24      444        1     0.00000   -0.15838   13.09768    7.77360
      25      444        1     0.00000    4.12807    1.83683    9.65377
      26      444        1     0.00000    6.68032    1.82510    6.06014
      27      444        1     0.00000    8.12261   -0.49054   13.22977
      28      444        1     0.00000    4.77297    1.99643   16.09659
      29      444        1     0.00000    6.66653    1.69460   11.53030
      30      444        1     0.00000    3.90256    6.67874   16.57646
      31      444        1     0.00000    5.62573    3.97019    7.84998
      32      444        1     0.00000    1.88485    5.85123    9.16224
      33      444        1     0.00000    4.26417    6.06935    5.85264
      34      444        1     0.00000    1.56580    6.18281   14.45214
      35      444        1     0.00000    4.31945    6.80508   10.71019
      36      444        1     0.00000    2.29852    9.41383    1.71140
      37      444        1     0.00000   -1.60261   11.34761    3.89978
      38      444        1     0.00000    1.49940   10.79435   16.74416
      39      444        1     0.00000   -1.33179   10.94434    9.62531
      40      444        1     0.00000    1.02231   11.19589    5.63747
      41      444        1     0.00000    2.74650    8.61673   12.74511
      42      444        1     0.00000   -0.91072   10.39686   14.92329
      43      444        1     0.00000    1.37360   11.03874   11.36726
      44      444        1     0.00000   12.99194   -0.00970    1.83497
      45      444        1     0.00000    9.03274    1.73281    3.98319
      46      444        1     0.00000   12.10797    1.21054   16.88763
      47      444        1     0.00000   13.22900   -0.18057    7.42130
      48      444        1     0.00000    9.19956    1.83643    9.69002
      49      444        1     0.00000   11.57744    1.77773    5.90906
      50      444        1     0.00000   13.31330   -0.46284   12.87510
      51      444        1     0.00000    9.46826    1.68664   15.22093
      52      444        1     0.00000   11.79207    1.80033   11.28542
      53      444        1     0.00000   10.33962    3.89101    2.04339
      54      444        1     0.00000    8.85871    6.07805    0.23769
      55      444        1     0.00000   10.66756    3.79270    7.99514
      56      444        1     0.00000    6.96000    6.46063    9.28229
      57      444        1     0.00000    9.44849    7.10930    5.37523
      58      444        1     0.00000   10.58359    3.93294   13.14683
      59      444        1     0.00000    9.43991    6.12671   11.35826
      60      444        1     0.00000    7.83831    8.59465    1.70103
      61      444        1     0.00000    3.63524   11.38749    3.87854
      62      444        1     0.00000    7.73935    8.75892    7.20174
      63      444        1     0.00000    3.80486   11.19077    9.37685
      64      444        1     0.00000    6.20408   10.88921    5.74636
      65      444        1     0.00000    3.97741   10.72061   14.79670
      66      444        1     0.00000    6.38429   10.76014   11.04122
      67      444        2     0.00000    0.59143    3.59313    3.56229
      68      444        2     0.00000    1.45388    0.37897    7.75771
      69      444        2     0.00000    0.38313    0.78428    4.68251
      70      444        2     0.00000   -7.02928   11.59200   13.69954
      71      444        2     0.00000    0.37392    0.88474   16.04734
      72      444        2     0.00000   -2.05358    6.07843    3.73311
      73      444        2     0.00000   -3.85984    7.17818    1.68542
      74      444        2     0.00000   -0.71561    5.13330    0.11824
      75      444        2     0.00000   -1.14175    8.12211    0.37144
      76      444        2     0.00000   -1.02688    5.42809    6.91075
      77      444        2     0.00000   -6.43361   11.78727    2.61023
      78      444        2     0.00000   -4.31242   10.02378    0.83752
      79      444        2     0.00000   -4.04579   13.03984    0.79303
      80      444        2     0.00000   -4.54562   10.90845   15.26645
      81      444        2     0.00000   -1.94154    8.24006    6.14861
      82      444        2     0.00000    3.58172    0.49180    3.77252
      83      444        2     0.00000    4.18777    3.41178    3.35490
      84      444        2     0.00000    6.94773    4.13303    2.08723
      85      444        2     0.00000    3.09178    0.62001   13.76350
      86      444        2     0.00000    5.71327    0.66426   15.17050
      87      444        2     0.00000    4.29854    3.44501   15.01900
      88      444        2     0.00000    2.67691    2.28787    0.29094
      89      444        2     0.00000    6.79230    3.10332   12.70400
      90      444        2     0.00000    3.53666    5.98996    0.94139
      91      444        2     0.00000    5.26335    6.93332   15.34271
      92      444        2     0.00000    0.89007    7.32326    8.63104
      93      444        2     0.00000    1.54467    4.94768   10.69895
      94      444        2     0.00000   -0.15959    7.53794   11.45542
      95      444        2     0.00000    2.56495    5.71041    5.18042
      96      444        2     0.00000    4.10303    7.57382    6.89274
      97      444        2     0.00000    5.28184    6.68883    4.42869
      98      444        2     0.00000    4.57353    5.43501   11.91581
      99      444        2     0.00000    1.53152    8.01599    2.64122
     100      444        2     0.00000   -1.62302    9.70170    3.10259
     101      444        2     0.00000    1.02724    9.37819    5.91266
     102      444        2     0.00000   13.98252    1.50505    2.23235
     103      444        2     0.00000    5.91907   12.03551    1.46500
     104      444        2     0.00000   12.59434    2.93315    4.91540
     105      444        2     0.00000    8.02466    5.16240   16.04058
     106      444        2     0.00000    8.29893    5.91500    4.56369
     107      444        2     0.00000    9.53650    4.23516    6.63880
     108      444        2     0.00000   10.32068    6.96168    6.97854
     109      444        2     0.00000    9.09171    7.37941   12.66335
     110      444        2     0.00000    6.01046    8.51336    1.96310
     111      444        2     0.00000    8.10457    9.47767    0.06699
     112      444        2     0.00000    3.01199   10.03554    8.23757
     113      444        2     0.00000    5.62229   10.37614   15.53202
     114      444        2     0.00000    6.46104    9.34667   12.21295
     115      444        3     0.00000   -0.11629    1.41658   10.29866
     116      444        3     0.00000    1.61276    0.03559   11.55777
     117      444        3     0.00000   -0.68321    3.46190    8.82546
     118      444        3     0.00000    0.21551    3.04585    6.36746
     119      444        3     0.00000   -0.54742    3.00086   14.33684
     120      444        3     0.00000    1.01561    2.61052   12.29976
     121      444        3     0.00000   -2.33010    5.69984   15.72580
     122      444        3     0.00000   -2.12332    5.76069   10.35219
     123      444        3     0.00000   -0.79301    4.74900   12.41548
     124      444        3     0.00000   -3.11101    7.64935    8.75510
     125      444        3     0.00000   -5.46431   11.75587    9.02654
     126      444        3     0.00000   -5.32034   10.43258    4.90757
     127      444        3     0.00000   -3.79020    9.91368    7.11268
     128      444        3     0.00000   -4.59634   12.36867    6.60505
     129      444        3     0.00000   -3.69794    7.75285   14.65243
     130      444        3     0.00000   -2.38813    6.92406   12.70735
     131      444        3     0.00000   -5.19627    9.72013   10.46533
     132      444        3     0.00000   -3.56918    9.32876   12.47974
     133      444        3     0.00000   -4.62414   11.76063   12.08813
     134      444        3     0.00000    2.56967    2.50409    5.46608
     135      444        3     0.00000    6.93084    1.32704    1.37714
     136      444        3     0.00000    4.17999    0.54343    8.67203
     137      444        3     0.00000    2.59958    2.06481   10.22458
     138      444        3     0.00000    5.14167    1.80496    5.61540
     139      444        3     0.00000    7.13801    0.40169    6.68498
     140      444        3     0.00000    5.31598    3.18338    0.24248
     141      444        3     0.00000    5.14734    1.59772   10.91187
     142      444        3     0.00000    7.05554    0.26973   12.25858
     143      444        3     0.00000    4.57835    3.16212    8.81236
     144      444        3     0.00000    6.77328    2.97573    7.22027
     145      444        3     0.00000    1.57951    4.70355    7.99176
     146      444        3     0.00000    4.87108    4.73761    6.64185
     147      444        3     0.00000    1.53240    4.66122   13.82040
     148      444        3     0.00000    2.49947    6.27278   15.77923
     149      444        3     0.00000    0.01280    6.46721   14.81342
     150      444        3     0.00000    3.45040    6.35636    9.38928
     151      444        3     0.00000    3.12980    8.79325    0.43666
     152      444        3     0.00000   -1.62450   12.49131    2.70110
     153      444        3     0.00000   -2.84749   11.39633    4.96466
     154      444        3     0.00000    1.16352   10.39912    1.05976
     155      444        3     0.00000    0.16074   12.71204    0.59082
     156      444        3     0.00000   -1.51217    9.73780    8.53943
     157      444        3     0.00000   -1.15281   12.36867    8.85128
     158      444        3     0.00000   -2.66024   10.91355   10.56870
     159      444        3     0.00000   -0.21824   11.62571    4.68732
     160      444        3     0.00000    0.81737   12.01619    7.04239
     161      444        3     0.00000    2.09205    7.25740   13.35713
     162      444        3     0.00000    3.66149    8.12532   11.47412
     163      444        3     0.00000   -1.44364    9.11308   14.05576
     164      444        3     0.00000    0.56657   10.12607   15.56907
     165      444        3     0.00000   -0.91264   11.70314   13.95324
     166      444        3     0.00000   -1.83920   10.66051   16.20187
     167      444        3     0.00000    0.06700   10.70554   10.43873
     168      444        3     0.00000    1.63683    9.67547   12.22196
     169      444        3     0.00000    1.06510   12.28891   12.34709
     170      444        3     0.00000    8.86402    0.43685    2.99875
     171      444        3     0.00000    7.64054    2.12311    4.75984
     172      444        3     0.00000   13.22056    1.82340   15.87761
     173      444        3     0.00000   11.94333    0.41390    0.60965
     174      444        3     0.00000   14.07681    1.05506    8.03606
     175      444        3     0.00000    9.09295    0.75212    8.47788
     176      444        3     0.00000    7.71688    1.95827   10.31510
     177      444        3     0.00000   10.16108    1.46900    5.12435
     178      444        3     0.00000   12.28204    0.33071    6.19868
     179      444        3     0.00000   14.28611    0.43050   13.82345
     180      444        3     0.00000    8.79669    0.51703   14.31565
     181      444        3     0.00000   10.74350    1.06264   16.01834
     182      444        3     0.00000    8.42568    2.22855   16.34123
     183      444        3     0.00000   12.84019    2.21349   10.11065
     184      444        3     0.00000   10.31923    1.34191   10.76102
     185      444        3     0.00000   12.32805    0.52217   12.08797
     186      444        3     0.00000    9.38004    2.96139    2.97193
     187      444        3     0.00000   11.35383    2.91290    1.22602
     188      444        3     0.00000   11.06437    4.85417    3.11801
     189      444        3     0.00000   10.58270    6.17601   16.21628
     190      444        3     0.00000    9.57861    4.75343    0.89163
     191      444        3     0.00000    9.70592    3.30991    9.22643
     192      444        3     0.00000   11.46009    2.47905    7.39998
     193      444        3     0.00000   11.71327    4.93997    8.54090
     194      444        3     0.00000    6.43422    5.01681    8.79036
     195      444        3     0.00000    5.78653    7.24279   10.10546
     196      444        3     0.00000   10.75042    7.27640    4.34662
     197      444        3     0.00000    9.85158    2.93765   14.22982
     198      444        3     0.00000   11.66764    3.07819   12.29152
     199      444        3     0.00000   11.34679    5.11313   13.94678
     200      444        3     0.00000   10.81814    6.45156   10.54234
     201      444        3     0.00000    8.23194    6.17371   10.24668
     202      444        3     0.00000    9.52852    4.63976   12.10306
     203      444        3     0.00000    8.43802    7.06770    1.47293
     204      444        3     0.00000    8.58192    9.14731    3.08138
     205      444        3     0.00000    3.26806   10.27959    2.71961
     206      444        3     0.00000    3.92466   12.82567    3.15710
     207      444        3     0.00000    2.41699   11.61756    4.91322
     208      444        3     0.00000    7.32496    7.38150    7.98179
     209      444        3     0.00000    8.46147    8.41317    5.77582
     210      444        3     0.00000    8.72254    9.58447    8.21545
     211      444        3     0.00000    4.10475   12.62357    8.64273
     212      444        3     0.00000    2.73391   11.45185   10.59085
     213      444        3     0.00000    7.55278   11.00656    4.84733
     214      444        3     0.00000    4.91702   10.77743    4.72927
     215      444        3     0.00000    6.40526    9.61181    6.76063
     216      444        3     0.00000    6.00138   12.16573    6.74000
     217      444        3     0.00000    3.55284    9.36848   13.94425
     218      444        3     0.00000    4.11482   11.96821   13.75048
     219      444        3     0.00000    2.87735   11.13645   15.94357
     220      444        3     0.00000    7.86058   10.89561   10.33129
     221      444        3     0.00000    5.22471   10.57121    9.90717
     222      444        3     0.00000    6.00249   12.15137   11.83112
     223      444        4     0.00000    0.89966    4.63350    3.69753
     224      444        4     0.00000   -0.49180    3.58711    3.39665
     225      444        4     0.00000    1.05599    3.20236    2.64486
     226      444        4     0.00000    0.92332    0.31112    8.70955
     227      444        4     0.00000    0.83820   -0.16440    7.03897
     228      444        4     0.00000    1.52199    1.42629    7.46199
     229      444        4     0.00000    1.00507    0.02845    5.16344
     230      444        4     0.00000    0.39106    0.59136    3.60830
     231      444        4     0.00000   14.86234    0.64361    5.03417
     232      444        4     0.00000    8.80682   10.55007   13.76925
     233      444        4     0.00000    7.49746   11.64324   13.23510
     234      444        4     0.00000   -7.14714   11.97505   14.71917
     235      444        4     0.00000    1.28269    0.71529   15.46599
     236      444        4     0.00000    0.06177   -0.07517   16.47712
     237      444        4     0.00000   -0.01014    2.22116   -0.04420
     238      444        4     0.00000   -1.45566    6.99281    3.79523
     239      444        4     0.00000   -1.68754    5.49662    2.87278
     240      444        4     0.00000   -1.87198    5.48043    4.62438
     241      444        4     0.00000   -3.61576    6.43288    0.92562
     242      444        4     0.00000   -3.12412    7.97243    1.63071
     243      444        4     0.00000   -4.83433    7.60468    1.47205
     244      444        4     0.00000   -0.29492    5.39644    1.09905
     245      444        4     0.00000    0.69484    4.00551   16.44200
     246      444        4     0.00000   -1.51316    4.39387    0.27210
     247      444        4     0.00000   -0.13508    8.49457    0.14877
     248      444        4     0.00000   -1.17233    7.84689    1.42656
     249      444        4     0.00000   -1.83986    8.94518    0.18382
     250      444        4     0.00000   -1.30143    6.18059    7.64733
     251      444        4     0.00000   -1.94767    4.93184    6.58532
     252      444        4     0.00000   -0.55991    5.91259    6.04922
     253      444        4     0.00000   -6.91284   11.43844    1.69269
     254      444        4     0.00000   -5.37197   11.91155    2.40910
     255      444        4     0.00000   -6.84895   12.75976    2.86326
     256      444        4     0.00000   -3.51761    9.97393    1.58509
     257      444        4     0.00000   -4.23891    9.14566    0.19078
     258      444        4     0.00000   -5.26371    9.98227    1.36321
     259      444        4     0.00000    4.80707    0.41365    0.35661
     260      444        4     0.00000   -3.59857   12.81704    1.76004
     261      444        4     0.00000    3.19020   -0.02964    0.95213
     262      444        4     0.00000   -4.81633    9.91009   14.90698
     263      444        4     0.00000   -4.12353   11.46737   14.42384
     264      444        4     0.00000   -5.46485   11.40735   15.58839
     265      444        4     0.00000   -1.80531    9.12846    5.52719
     266      444        4     0.00000   -2.68643    7.60633    5.65903
     267      444        4     0.00000   -0.99616    7.71536    6.21258
     268      444        4     0.00000    4.53225    0.06069    3.45069
     269      444        4     0.00000    2.94905    0.62921    2.89499
     270      444        4     0.00000   -5.15335   13.22125    4.46425
     271      444        4     0.00000    3.21775    3.74981    2.97095
     272      444        4     0.00000    4.74906    3.03119    2.50010
     273      444        4     0.00000    4.70985    4.28054    3.75762
     274      444        4     0.00000    7.84298    4.73058    2.17044
     275      444        4     0.00000    6.81029    3.64667    3.05790
     276      444        4     0.00000    6.10386    4.81268    1.92511
     277      444        4     0.00000    2.34739    1.42368   13.78633
     278      444        4     0.00000    3.99753    1.01568   13.29249
     279      444        4     0.00000    3.31208    0.32096   14.78834
     280      444        4     0.00000    6.61101    0.38883   15.73391
     281      444        4     0.00000    6.04738    1.10952   14.22867
     282      444        4     0.00000    5.19350   -0.25840   14.92103
     283      444        4     0.00000    3.91028    3.15913   14.03596
     284      444        4     0.00000    5.16824    4.09530   14.87245
     285      444        4     0.00000    3.51178    4.03096   15.50583
     286      444        4     0.00000    2.09807    1.39923    0.03356
     287      444        4     0.00000    1.99868    3.15271    0.25568
     288      444        4     0.00000    3.03091    2.17523    1.32080
     289      444        4     0.00000    7.04381    4.00758   12.13924
     290      444        4     0.00000    7.59633    2.94239   13.42906
     291      444        4     0.00000    5.86058    3.27483   13.24190
     292      444        4     0.00000    4.26977    5.23997    0.61975
     293      444        4     0.00000    2.59122    5.45982    1.12421
     294      444        4     0.00000    3.87936    6.39825    1.89904
     295      444        4     0.00000    4.94046    7.65352   14.58310
     296      444        4     0.00000    5.55575    6.00275   14.84746
     297      444        4     0.00000    6.14815    7.34983   15.83811
     298      444        4     0.00000    0.97575    7.40700    7.54264
     299      444        4     0.00000    1.20507    8.26838    9.07999
     300      444        4     0.00000   -0.16737    7.18235    8.87291
     301      444        4     0.00000    2.31231    4.16979   10.72960
     302      444        4     0.00000    0.57315    4.45990   10.62081
     303      444        4     0.00000    1.62032    5.54445   11.60530
     304      444        4     0.00000   -0.04433    8.03911   12.41787
     305      444        4     0.00000    0.82484    7.36304   11.03906
     306      444        4     0.00000   -0.68155    8.24057   10.79173
     307      444        4     0.00000    2.60335    5.49396    4.10930
     308      444        4     0.00000    1.91442    6.58285    5.33255
     309      444        4     0.00000    2.13054    4.85814    5.70181
     310      444        4     0.00000    4.14669    8.41301    6.18461
     311      444        4     0.00000    4.86937    7.74873    7.64768
     312      444        4     0.00000    3.12990    7.59728    7.37752
     313      444        4     0.00000    4.56929    7.34809    3.90952
     314      444        4     0.00000    5.66610    5.96819    3.70321
     315      444        4     0.00000    6.10823    7.32835    4.75833
     316      444        4     0.00000    5.38615    5.70469   12.60351
     317      444        4     0.00000    4.87522    4.53035   11.37355
     318      444        4     0.00000    3.68550    5.19443   12.50836
     319      444        4     0.00000    2.27221    7.54883    3.29920
     320      444        4     0.00000    1.14805    7.24955    1.95612
     321      444        4     0.00000    0.69715    8.35010    3.26047
     322      444        4     0.00000   -1.25611    9.78368    2.07854
     323      444        4     0.00000   -2.63163    9.27632    3.10857
     324      444        4     0.00000   -0.98039    8.99942    3.63825
     325      444        4     0.00000    2.04127    8.98234    6.01084
     326      444        4     0.00000    0.54025    8.86270    5.08120
     327      444        4     0.00000    0.47222    9.14838    6.82507
     328      444        4     0.00000   13.57319    2.42854    1.81052
     329      444        4     0.00000   -0.51040    1.37686    1.84102
     330      444        4     0.00000   14.06517    1.63188    3.30893
     331      444        4     0.00000    6.64885   12.24249    0.67587
     332      444        4     0.00000    5.42003   11.08753    1.25407
     333      444        4     0.00000    6.47670   11.91419    2.40558
     334      444        4     0.00000   12.55141    2.75860    3.84036
     335      444        4     0.00000   13.63329    2.90804    5.26444
     336      444        4     0.00000   12.20623    3.94198    5.08645
     337      444        4     0.00000    8.23178    4.44466   15.24264
     338      444        4     0.00000    7.85010    6.13836   15.56734
     339      444        4     0.00000    7.10511    4.86291   16.55415
     340      444        4     0.00000    7.48780    5.59769    5.22717
     341      444        4     0.00000    8.80988    5.02273    4.20073
     342      444        4     0.00000    7.86377    6.42599    3.69991
     343      444        4     0.00000    9.02621    3.30077    6.39376
     344      444        4     0.00000   10.06302    4.56515    5.73995
     345      444        4     0.00000    8.75957    4.94614    6.91439
     346      444        4     0.00000   11.23450    6.37862    6.88735
     347      444        4     0.00000    9.73801    6.62060    7.83654
     348      444        4     0.00000   -4.92440    8.00510    7.17622
     349      444        4     0.00000    9.08838    8.38537   12.23106
     350      444        4     0.00000    9.83844    7.35951   13.46264
     351      444        4     0.00000    8.10694    7.17999   13.10835
     352      444        4     0.00000    5.69455    7.46818    2.02979
     353      444        4     0.00000    5.49231    8.95768    1.10686
     354      444        4     0.00000    5.67156    9.03227    2.86520
     355      444        4     0.00000    9.70198    8.65504   16.52857
     356      444        4     0.00000    7.90019   10.55358    0.08132
     357      444        4     0.00000    7.97237    8.39108   16.29497
     358      444        4     0.00000    3.47466   10.04846    7.24858
     359      444        4     0.00000    1.95837   10.30972    8.14939
     360      444        4     0.00000    3.09098    9.02619    8.64252
     361      444        4     0.00000    6.06241   11.30631   15.90168
     362      444        4     0.00000    6.29321    9.96016   14.77336
     363      444        4     0.00000    5.54506    9.66163   16.35576
     364      444        4     0.00000    6.64766    8.42435   11.65997
     365      444        4     0.00000    5.52091    9.22731   12.75483
     366      444        4     0.00000    7.26819    9.48489   12.93461

Bonds

       1        1        1       68
       2        2        1      125
       3        2        1      128
       4        2        1      136
       5        2        2      115
       6        2        2      117
       7        2        2      174
       8        2        2      183
       9        1        3       67
      10        1        3       69
      11        2        3      118
      12        2        3      134
      13        1        4       70
      14        1        4       85
      15        2        4      116
      16        2        4      133
      17        1        5       71
      18        2        5      119
      19        2        5      172
      20        2        5      179
      21        2        6      115
      22        2        6      116
      23        2        6      120
      24        2        6      137
      25        1        7       72
      26        1        7       73
      27        2        7      188
      28        2        7      196
      29        1        8       74
      30        1        8       75
      31        2        8      121
      32        2        8      149
      33        1        9       76
      34        2        9      117
      35        2        9      118
      36        2        9      145
      37        2       10      122
      38        2       10      124
      39        2       10      193
      40        2       10      200
      41        2       11      119
      42        2       11      120
      43        2       11      123
      44        2       11      147
      45        2       12      121
      46        2       12      129
      47        2       12      189
      48        2       12      199
      49        1       13       94
      50        2       13      122
      51        2       13      123
      52        2       13      130
      53        1       14       77