Created on Mon Oct 06 08:42:50 2025 

         386 atoms
         411 bonds
         781 angles
         987 dihedrals

           4 atom types
           4 bond types
           9 angle types
           2 dihedral types
           0.000000  16.607790 xlo xhi
           0.000000  13.446743 ylo yhi
           0.000000  17.350162 zlo zhi
          -9.450478  -1.071671   0.003425 xy xz yz

Masses

    1    28.085500000 # Si3
    2    12.010700000 # C_3
    3     1.007940000 # H_
    4    15.999400000 # O_2

Bond Coeffs

    1      226.661263        1.866919  # Si3 C_3
    2      365.702108        1.692864  # Si3 O_2
    3      172.712984        1.470529  # Si3 H_
    4      331.069389        1.109401  # C_3 H_

Angle Coeffs

    1                      fourier      157.882480        0.343737        0.374972        0.281246 # C_3 Si3 O_2
    2                      fourier      221.735285        0.343737        0.374972        0.281246 # O_2 Si3 O_2
    3                      fourier       83.380072        0.343737        0.374972        0.281246 # H_ Si3 O_2
    4                      fourier       58.020602        0.343737        0.374972        0.281246 # C_3 Si3 H_
    5                      fourier      114.246973        0.343737        0.374972        0.281246 # C_3 Si3 C_3
    6                      fourier       32.417871        0.343737        0.374972        0.281246 # H_ Si3 H_
    7                      fourier       90.420412        0.343737        0.374972        0.281246 # Si3 C_3 H_
    8                      fourier       75.498766        0.343737        0.374972        0.281246 # H_ C_3 H_
    9              cosine/periodic       88.853997              -1               3 # Si3 O_2 Si3

Dihedral Coeffs

    1        0.089508               1               3 # O_2 Si3 C_3 H_
    2        0.333333               1               3 # C_3 Si3 O_2 Si3

Pair Coeffs

    1        0.402000        3.826410 # Si3 Si3
    2        0.105000        3.430851 # C_3 C_3
    3        0.044000        2.571134 # H_ H_
    4        0.060000        3.118146 # O_2 O_2

Atoms

       1      444        1     0.00000   -7.34519   13.13600    2.52445
       2      444        1     0.00000   -1.77838    2.17574    3.60195
       3      444        1     0.00000    0.55865    1.52577    0.71269
       4      444        1     0.00000   -6.75292   13.03644    8.48203
       5      444        1     0.00000   13.67873    2.07845   10.27163
       6      444        1     0.00000    1.76149    0.98482   13.33920
       7      444        1     0.00000   -0.31172    2.55626   11.81078
       8      444        1     0.00000   -0.29262    4.29496    1.90829
       9      444        1     0.00000   -4.33344    6.51134    3.84270
      10      444        1     0.00000   -2.64424    6.31543   17.06538
      11      444        1     0.00000   -1.27226    4.44079    7.32227
      12      444        1     0.00000   -2.88200    6.83827    6.50133
      13      444        1     0.00000   -1.24334    4.72993   13.79477
      14      444        1     0.00000   10.11839    7.47760   15.37493
      15      444        1     0.00000   -2.74831    8.29146    1.86873
      16      444        1     0.00000    8.11363   11.09050    4.49798
      17      444        1     0.00000   -4.10588    7.70260    9.12105
      18      444        1     0.00000   -4.38530    9.26228   13.71442
      19      444        1     0.00000   -5.39073   10.68089   11.21816
      20      444        1     0.00000    8.02609    0.63219    1.81849
      21      444        1     0.00000    4.24436    1.59287    3.74267
      22      444        1     0.00000    5.80737    2.80869   17.16675
      23      444        1     0.00000   -1.58667   12.48626    7.52759
      24      444        1     0.00000    4.26762    1.95923    9.94936
      25      444        1     0.00000    5.97985    1.16357    6.04802
      26      444        1     0.00000    7.27575    0.12198   14.37728
      27      444        1     0.00000    3.65180    2.98209   14.86307
      28      444        1     0.00000    6.96263    2.78810   10.52754
      29      444        1     0.00000    5.21147    3.98676    2.10355
      30      444        1     0.00000    1.40386    6.45132    3.56223
      31      444        1     0.00000    2.43406    7.86711   16.95510
      32      444        1     0.00000    4.37868    3.38430    7.40758
      33      444        1     0.00000    0.23630    6.18122    9.44905
      34      444        1     0.00000    2.65925    5.50817    6.15009
      35      444        1     0.00000    4.94349    4.52544   12.38042
      36      444        1     0.00000   -0.11459    7.18502   15.29995
      37      444        1     0.00000    3.14346    6.05129   10.51095
      38      444        1     0.00000    2.00759    9.06552    1.92502
      39      444        1     0.00000   -2.72684   10.47628    9.66251
      40      444        1     0.00000   -0.06590   12.08842    4.90102
      41      444        1     0.00000    1.13904    9.21439   13.41966
      42      444        1     0.00000   -3.81827   11.46486   15.77322
      43      444        1     0.00000    0.11473   10.84263   10.89486
      44      444        1     0.00000   13.38614    0.18575    1.56554
      45      444        1     0.00000    9.85287    2.59308    3.52330
      46      444        1     0.00000   11.23832    2.49009   17.18416
      47      444        1     0.00000   13.09321    0.04386    7.73527
      48      444        1     0.00000   12.21052    2.12761    5.45520
      49      444        1     0.00000   13.29244    0.70920   14.47135
      50      444        1     0.00000    8.44971    2.82574   15.59379
      51      444        1     0.00000   11.60041    2.46281   12.68607
      52      444        1     0.00000   11.61221    4.43396    1.85269
      53      444        1     0.00000    6.24020    6.69270    3.62141
      54      444        1     0.00000    7.45220    8.05822   16.82822
      55      444        1     0.00000   10.55226    3.82482    7.20663
      56      444        1     0.00000    5.94168    6.76499    9.22234
      57      444        1     0.00000    9.65603    4.86115   13.44667
      58      444        1     0.00000    4.87372    7.95750   15.16295
      59      444        1     0.00000    8.37126    6.67836   11.22746
      60      444        1     0.00000    7.38521    9.14048    1.98527
      61      444        1     0.00000    2.84077   11.58286    3.74474
      62      444        1     0.00000    6.39430    9.35063    7.58122
      63      444        1     0.00000    2.20514   10.73498    8.53052
      64      444        1     0.00000    5.23309   11.53138    5.93285
      65      444        1     0.00000    2.35572   11.59345   15.19274
      66      444        1     0.00000    5.74074   12.28751   12.93809
      67      444        2     0.00000   -7.01412   11.87209    1.23299
      68      444        2     0.00000    1.46070    0.48619    7.41477
      69      444        2     0.00000   -5.49520   12.10441    7.48156
      70      444        2     0.00000   -5.95219    7.35262    3.52545
      71      444        2     0.00000   -0.10474    3.33733    6.39924
      72      444        2     0.00000   -1.24197    3.52048   15.20062
      73      444        2     0.00000   -3.79231    5.52209   15.86514
      74      444        2     0.00000   -4.16374    9.46350    1.61525
      75      444        2     0.00000   -7.34936   10.18262    5.62794
      76      444        2     0.00000   -4.42022    6.69056   10.63957
      77      444        2     0.00000   -5.61885    8.45733    8.32629
      78      444        2     0.00000   -2.90320    8.21406   13.52724
      79      444        2     0.00000   -5.98895   12.08513   12.20050
      80      444        2     0.00000   -2.73179   12.91604    2.44767
      81      444        2     0.00000   -0.00474   13.18418    1.06440
      82      444        2     0.00000    8.73767    0.17078    8.68164
      83      444        2     0.00000    0.90435    2.66781   10.44362
      84      444        2     0.00000    2.34913    4.17414   15.38869
      85      444        2     0.00000    0.79625    1.15082   16.80398
      86      444        2     0.00000    6.02095    0.75017   13.16568
      87      444        2     0.00000    8.33846    1.99140   11.47965
      88      444        2     0.00000    7.69190    3.70964    9.10804
      89      444        2     0.00000    0.15544    7.35562    4.53478
      90      444        2     0.00000   -2.43483    8.59715    6.14151
      91      444        2     0.00000    3.46005    3.89688    1.52383
      92      444        2     0.00000    4.49413    6.79623    0.70029
      93      444        2     0.00000    0.18813    7.68109    8.38530
      94      444        2     0.00000   -0.53849    6.65180   11.06604
      95      444        2     0.00000   -0.85448   10.76736    3.89183
      96      444        2     0.00000   -2.73332   10.31967   16.74743
      97      444        2     0.00000   -5.50873   11.89392   16.39146
      98      444        2     0.00000   -1.01224   12.29620   13.70795
      99      444        2     0.00000    7.23707    2.43678    5.65100
     100      444        2     0.00000    7.43424    6.11587    4.90161
     101      444        2     0.00000    4.96472    7.82913    4.33480
     102      444        2     0.00000    8.53424    6.29823    0.01345
     103      444        2     0.00000    9.91680    5.52232    6.86539
     104      444        2     0.00000   11.08155    3.62263    8.96422
     105      444        2     0.00000    5.05129    6.12614   15.29825
     106      444        2     0.00000    4.90417    8.51895   13.40487
     107      444        2     0.00000    8.46280    8.24438   12.20716
     108      444        2     0.00000    5.95545   10.08436    1.29151
     109      444        2     0.00000    7.41630   10.58286    8.47986
     110      444        2     0.00000    1.94638    9.85998    6.90863
     111      444        2     0.00000    1.02345   11.74889   16.45951
     112      444        2     0.00000    6.96859   12.47054   11.53187
     113      444        2     0.00000    3.40789    9.77170    9.55182
     114      444        2     0.00000    4.30662   11.54834   12.01846
     115      444        2     0.00000    6.51372   11.29980   14.32610
     116      444        3     0.00000   -0.62775    1.53390    4.24602
     117      444        3     0.00000   -0.76546    1.13489    0.18636
     118      444        3     0.00000   -7.43331   12.16058    9.46693
     119      444        3     0.00000    2.34806    0.93408   11.99812
     120      444        3     0.00000   -2.70424    3.38720    9.65635
     121      444        3     0.00000   -2.52420    3.73422    7.65715
     122      444        3     0.00000   -2.55927    5.31214   13.45639
     123      444        3     0.00000   -5.93402    6.98167   16.64009
     124      444        3     0.00000   -1.48134    8.96284    2.21038
     125      444        3     0.00000   -6.45310   10.17338   10.32291
     126      444        3     0.00000   -8.01585   13.13937   13.96726
     127      444        3     0.00000    3.24532    2.38782    4.48252
     128      444        3     0.00000    3.83213    2.28311   11.30998
     129      444        3     0.00000    1.31688    5.68511    6.73058
     130      444        3     0.00000    0.61039    9.42887    1.63423
     131      444        3     0.00000    8.96564    0.00667    4.55679
     132      444        3     0.00000    2.89586    7.30216   11.25304
     133      444        3     0.00000    2.09330    8.12826   13.15809
     134      444        3     0.00000    0.47903   12.16926   11.41393
     135      444        3     0.00000    4.76994   12.76185    0.72147
     136      444        3     0.00000    9.32265    3.63643    4.41576
     137      444        3     0.00000   12.21708    2.55474   16.10506
     138      444        3     0.00000   13.69357    0.95652   15.86313
     139      444        3     0.00000   10.50058    1.50017   12.81124
     140      444        3     0.00000    3.63494    6.45390    6.75121
     141      444        3     0.00000   11.06192    5.56428    1.08798
     142      444        3     0.00000    9.55769    2.76403    6.88880
     143      444        3     0.00000    5.49572    4.32749    7.22707
     144      444        3     0.00000    6.52114    6.01219    8.10006
     145      444        3     0.00000    5.54720    5.78814   12.81006
     146      444        3     0.00000    9.30451    6.65384   10.07225
     147      444        3     0.00000    7.09342    8.53682    6.55786
     148      444        3     0.00000    3.66493   11.15874   15.73918
     149      444        3     0.00000   -7.94360   11.49040    0.79556
     150      444        3     0.00000   -6.45853   11.01264    1.62370
     151      444        3     0.00000   -6.42625   12.30922    0.42272
     152      444        3     0.00000    0.66672    0.95580    8.00833
     153      444        3     0.00000   -8.46743   13.26683    6.68337
     154      444        3     0.00000    1.97113    1.26908    6.83628
     155      444        3     0.00000   -5.52014   12.37592    6.41857
     156      444        3     0.00000   -5.60057   11.01946    7.56094
     157      444        3     0.00000   -4.50866   12.35387    7.87644
     158      444        3     0.00000    9.82363    6.76686    3.93467
     159      444        3     0.00000   10.45586    7.49840    2.45689
     160      444        3     0.00000   -5.97647    8.33967    4.00544
     161      444        3     0.00000    0.05595    3.68864    5.37118
     162      444        3     0.00000   -0.50971    2.31893    6.34650
     163      444        3     0.00000    0.86901    3.27851    6.89579
     164      444        3     0.00000   -0.60881    2.67719   14.91064
     165      444        3     0.00000   -2.23495    3.11757   15.41848
     166      444        3     0.00000   -0.84790    3.96774   16.12014
     167      444        3     0.00000   -3.44647    4.57679   15.45001
     168      444        3     0.00000   -4.01560    6.19426   15.03025
     169      444        3     0.00000   -4.72269    5.32194   16.40546
     170      444        3     0.00000   -5.03598    8.96028    1.17572
     171      444        3     0.00000   -3.89238   10.29090    0.95363
     172      444        3     0.00000   -4.47029    9.89449    2.57941
     173      444        3     0.00000   -6.32791   10.28748    5.23397
     174      444        3     0.00000    9.00336    9.11649    5.64408
     175      444        3     0.00000   -7.34365   10.54988    6.65448
     176      444        3     0.00000   -3.47701    6.28351   11.02686
     177      444        3     0.00000   -5.06846    5.84299   10.38855
     178      444        3     0.00000   -4.89951    7.27910   11.42781
     179      444        3     0.00000   10.10694    7.82238    8.47892
     180      444        3     0.00000   -5.46732    8.56137    7.24274
     181      444        3     0.00000   -5.85502    9.44275    8.73510
     182      444        3     0.00000   -3.15386    7.23626   13.10260
     183      444        3     0.00000   -2.42547    8.06796   14.49740
     184      444        3     0.00000   -2.18539    8.70567   12.85864
     185      444        3     0.00000   -6.02350   12.97303   11.56836
     186      444        3     0.00000   -5.35146   12.26855   13.06821
     187      444        3     0.00000   -7.00164   11.84675   12.54863
     188      444        3     0.00000   -2.58159   11.94173    1.96395
     189      444        3     0.00000   -3.72398   13.27576    2.15250
     190      444        3     0.00000   -2.74330   12.76002    3.52816
     191      444        3     0.00000   -0.36008   12.55094    0.24554
     192      444        3     0.00000    0.53576   12.56096    1.78759
     193      444        3     0.00000   10.17124    0.44695    0.65434
     194      444        3     0.00000    9.06798    1.06064    8.12647
     195      444        3     0.00000    0.17761   13.15503    9.12004
     196      444        3     0.00000    8.05770    0.48193    9.47926
     197      444        3     0.00000    0.46536    3.15421    9.56716
     198      444        3     0.00000    1.22057    1.65645   10.16156
     199      444        3     0.00000    1.79098    3.24051   10.73658
     200      444        3     0.00000    2.70665    5.01462   15.98273
     201      444        3     0.00000    1.58402    3.66426   15.98347
     202      444        3     0.00000    1.85671    4.58936   14.49793
     203      444        3     0.00000    0.74452    1.83797   15.95686
     204      444        3     0.00000    0.60906    0.14041   16.41150
     205      444        3     0.00000    1.82041    1.17263   17.19968
     206      444        3     0.00000    5.01977    0.63619   13.59538
     207      444        3     0.00000    6.05113    0.19442   12.21994
     208      444        3     0.00000    6.15015    1.81323   12.95177
     209      444        3     0.00000    9.28145    2.17335   10.94877
     210      444        3     0.00000    8.22922    0.90698   11.58791
     211      444        3     0.00000    8.41396    2.42242   12.48237
     212      444        3     0.00000    6.93513    4.11851    8.43535
     213      444        3     0.00000    8.31492    3.01134    8.53706
     214      444        3     0.00000    8.33270    4.53180    9.44369
     215      444        3     0.00000   -0.33451    6.70598    5.26468
     216      444        3     0.00000   -0.62043    7.74165    3.86220
     217      444        3     0.00000    0.62588    8.19710    5.06203
     218      444        3     0.00000   -2.25834    8.71266    5.06831
     219      444        3     0.00000   -1.56231    8.97179    6.68366
     220      444        3     0.00000   -3.28520    9.24274    6.40792
     221      444        3     0.00000    3.37141    2.97702    0.93023
     222      444        3     0.00000    3.05266    4.71732    0.93233
     223      444        3     0.00000    2.81330    3.77304    2.40258
     224      444        3     0.00000    4.73150    5.83405    0.24776
     225      444        3     0.00000    3.97494    6.62481    1.64261
     226      444        3     0.00000    5.44165    7.29890    0.91649
     227      444        3     0.00000    0.43393    7.52354    7.33388
     228      444        3     0.00000    0.87527    8.41958    8.80859
     229      444        3     0.00000   -0.81708    8.11527    8.45997
     230      444        3     0.00000   -1.42397    6.03773   11.25762
     231      444        3     0.00000   -0.85030    7.70213   11.01730
     232      444        3     0.00000    0.14143    6.53669   11.91642
     233      444        3     0.00000   -0.68155   10.92515    2.82193
     234      444        3     0.00000   -1.93473   10.71642    4.06743
     235      444        3     0.00000   -0.41734    9.80148    4.16407
     236      444        3     0.00000   -1.75995   10.26407   16.23822
     237      444        3     0.00000   -3.14069    9.30414   16.76569
     238      444        3     0.00000   -1.47772   10.63684    0.42966
     239      444        3     0.00000   -6.17660   11.02459   16.44081
     240      444        3     0.00000   -5.94538   12.62745   15.69582
     241      444        3     0.00000   -4.38501   12.36812    0.02788
     242      444        3     0.00000   -1.52230   11.71222   12.93118
     243      444        3     0.00000   -0.71521   11.60375   14.50371
     244      444        3     0.00000   -0.10465   12.74552   13.29021
     245      444        3     0.00000    6.95193    3.02498    4.77315
     246      444        3     0.00000    8.18433    1.93595    5.43673
     247      444        3     0.00000    7.40206    3.11353    6.49472
     248      444        3     0.00000    8.13528    5.38981    4.46900
     249      444        3     0.00000    6.90232    5.60852    5.71915
     250      444        3     0.00000    7.99990    6.94697    5.33788
     251      444        3     0.00000    4.56317    7.46779    5.28757
     252      444        3     0.00000    4.12314    8.01568    3.66309
     253      444        3     0.00000    5.45618    8.79149    4.53322
     254      444        3     0.00000    7.62794    5.60412   16.53847
     255      444        3     0.00000    7.62449    5.99631    0.54008
     256      444        3     0.00000    9.35946    6.17637    0.72600
     257      444        3     0.00000    8.98220    5.72881    7.40163
     258      444        3     0.00000    9.74696    5.66443    5.79709
     259      444        3     0.00000   10.67957    6.24077    7.17393
     260      444        3     0.00000   10.38318    4.06801    9.68222
     261      444        3     0.00000   12.06096    4.09325    9.10818
     262      444        3     0.00000   11.16454    2.55718    9.20634
     263      444        3     0.00000    5.04865    5.75883   16.32612
     264      444        3     0.00000    5.99607    5.80989   14.84031
     265      444        3     0.00000    4.24077    5.64759   14.74759
     266      444        3     0.00000    4.20794    7.91540   12.80876
     267      444        3     0.00000    5.89844    8.42366   12.95528
     268      444        3     0.00000    4.58544    9.56106   13.33068
     269      444        3     0.00000    9.50450    8.51795   12.41161
     270      444        3     0.00000    7.94184    8.15744   13.16978
     271      444        3     0.00000    8.00183    9.06211   11.63384
     272      444        3     0.00000    5.12317   10.11061    2.00700
     273      444        3     0.00000    5.58641    9.72109    0.32941
     274      444        3     0.00000    6.28931   11.12176    1.14004
     275      444        3     0.00000    8.34150   10.14004    8.87121
     276      444        3     0.00000    6.83723   10.95197    9.33619
     277      444        3     0.00000    7.66919   11.45292    7.86773
     278      444        3     0.00000    2.30839    8.82885    6.99980
     279      444        3     0.00000    2.52349   10.33791    6.11713
     280      444        3     0.00000    0.89064    9.84751    6.62152
     281      444        3     0.00000    0.35508   10.88043   16.42228
     282      444        3     0.00000    0.44162   12.65889   16.28391
     283      444        3     0.00000    2.50419   11.79228    0.12336
     284      444        3     0.00000    6.45995   12.83486   10.63020
     285      444        3     0.00000    7.31557   11.44384   11.33080
     286      444        3     0.00000   -8.73365   13.06973   11.65660
     287      444        3     0.00000    4.42014   10.17978    9.53988
     288      444        3     0.00000    3.46532    8.75783    9.14043
     289      444        3     0.00000    3.07360    9.69559   10.59097
     290      444        3     0.00000    4.65977   10.67240   11.46865
     291      444        3     0.00000    3.97854   12.29166   11.27381
     292      444        3     0.00000    3.43294   11.25893   12.60810
     293      444        3     0.00000    7.05900   10.41295   13.97824
     294      444        3     0.00000    5.77246   10.97111   15.06504
     295      444        3     0.00000   -9.37176   11.93781   14.85505
     296      444        4     0.00000    0.85730    0.66292    2.08447
     297      444        4     0.00000   -1.63651    1.74540   11.22562
     298      444        4     0.00000    0.35826    1.81653   13.13012
     299      444        4     0.00000   -1.34742    3.63357    2.97229
     300      444        4     0.00000    0.50937    3.12054    1.11721
     301      444        4     0.00000   -1.00925    5.23892    0.80425
     302      444        4     0.00000   -4.06269    6.42965    5.44046
     303      444        4     0.00000   -1.66142    5.74852    6.38087
     304      444        4     0.00000   -0.75584    4.02048   12.39499
     305      444        4     0.00000   -3.08138    7.30259    3.13766
     306      444        4     0.00000   -2.48399    7.41012    0.51185
     307      444        4     0.00000   -7.76872   12.45840    3.95882
     308      444        4     0.00000   -3.45903    6.65419    8.02459
     309      444        4     0.00000   -5.51106    8.59224   14.70766
     310      444        4     0.00000   -5.04269    9.42340   12.22090
     311      444        4     0.00000    3.46151    0.60790    2.70111
     312      444        4     0.00000    7.26294    1.47547    0.63044
     313      444        4     0.00000    3.48088    0.64289    9.48087
     314      444        4     0.00000    5.12542    0.63851    4.74556
     315      444        4     0.00000   -2.75895   13.30491    6.71332
     316      444        4     0.00000    2.86117    1.64839   14.34768
     317      444        4     0.00000    4.64790    2.48913   16.06569
     318      444        4     0.00000    5.88912    1.66692    9.93274
     319      444        4     0.00000    5.32181    2.59752    3.00409
     320      444        4     0.00000    6.31059    3.92265    0.86923
     321      444        4     0.00000    0.77685    5.21151    2.71327
     322      444        4     0.00000    3.92237    3.25408    8.97137
     323      444        4     0.00000    4.81664    1.86580    6.98911
     324      444        4     0.00000   -0.58887    4.94545    8.73478
     325      444        4     0.00000    2.56500    5.78338    4.52957
     326      444        4     0.00000    3.16289    3.97066    6.47579
     327      444        4     0.00000    4.57297    3.56296   13.63872
     328      444        4     0.00000    6.05437    3.79693   11.45661
     329      444        4     0.00000   -0.21306    5.97151   14.21247
     330      444        4     0.00000    1.22354    7.03721   16.21852
     331      444        4     0.00000   -1.40087    7.12146   16.31677
     332      444        4     0.00000    1.81799    5.67127    9.65191
     333      444        4     0.00000    3.53732    4.87648   11.59005
     334      444        4     0.00000    2.09764    7.54307    2.53651
     335      444        4     0.00000    2.85410    9.07819    0.51887
     336      444        4     0.00000   -2.97169    8.88820    9.39730
     337      444        4     0.00000   -2.35088   11.23807    8.27514
     338      444        4     0.00000   -4.07521   11.11435   10.32196
     339      444        4     0.00000   -0.49212   11.85543    6.47659
     340      444        4     0.00000    0.00900    8.61835   14.48060
     341      444        4     0.00000   -4.00272   10.74860   14.28272
     342      444        4     0.00000   -3.00894   12.88274   15.61865
     343      444        4     0.00000   -1.50487   10.68151   10.72226
     344      444        4     0.00000    0.53491    9.66659   11.96320
     345      444        4     0.00000   14.32760    1.21639    2.38473
     346      444        4     0.00000    8.63947    1.66039    2.97554
     347      444        4     0.00000   12.37157    1.03686    0.59516
     348      444        4     0.00000   13.52837    0.94598    9.05573
     349      444        4     0.00000   13.63266    2.33205    4.69565
     350      444        4     0.00000   11.02973    1.76865    4.35231
     351      444        4     0.00000   12.33119    0.94992    6.59962
     352      444        4     0.00000    8.19260    1.34878   15.00128
     353      444        4     0.00000    9.74379    2.76420   16.58422
     354      444        4     0.00000    7.14108    3.37372   16.39892
     355      444        4     0.00000   12.33767    2.19678   11.23695
     356      444        4     0.00000   12.71934    2.12534   13.83875
     357      444        4     0.00000   10.45919    3.33817    2.19842
     358      444        4     0.00000   12.70357    3.66631    0.90802
     359      444        4     0.00000   12.27370    4.98091    3.23445
     360      444        4     0.00000    5.61641    5.29574    2.98867
     361      444        4     0.00000    8.71920    8.25369   15.77116
     362      444        4     0.00000   11.84270    3.52010    6.19949
     363      444        4     0.00000    4.42093    6.26209    9.50322
     364      444        4     0.00000    8.74106    3.88361   14.38002
     365      444        4     0.00000   10.97802    3.99865   12.92532
     366      444        4     0.00000   10.00019    6.20664   14.32048
     367      444        4     0.00000    6.12143    8.59678   16.03450
     368      444        4     0.00000    3.42760    8.49036   15.80581
     369      444        4     0.00000    6.85170    6.58448   10.57393
     370      444        4     0.00000    8.77120    5.35684   12.15471
     371      444        4     0.00000    7.05016    7.60543    2.48439
     372      444        4     0.00000    8.59656    8.98211    0.85451
     373      444        4     0.00000    7.87271   10.04844    3.26102
     374      444        4     0.00000    2.63319   10.13882    2.99830
     375      444        4     0.00000    3.06509   12.71730    2.60053
     376      444        4     0.00000    1.56324   11.98203    4.65658
     377      444        4     0.00000    5.86382    8.31870    8.73995
     378      444        4     0.00000    2.65105   12.31917    8.28102
     379      444        4     0.00000    0.79832   10.71916    9.41765
     380      444        4     0.00000    6.71677   11.58748    5.24294
     381      444        4     0.00000    4.14177   11.49520    4.72334
     382      444        4     0.00000    5.14918   10.14769    6.82012
     383      444        4     0.00000    4.94174   12.79631    6.95686
     384      444        4     0.00000    1.86701   10.52420   14.04230
     385      444        4     0.00000    2.62124   13.05157   14.44529
     386      444        4     0.00000   14.60524    0.22668   13.65538

Bonds

       1        1        1       67
       2        2        1      296