Created on Mon Oct 06 08:39:33 2025 

         365 atoms
         390 bonds
         739 angles
         924 dihedrals

           4 atom types
           4 bond types
           9 angle types
           2 dihedral types
           0.000000  15.070942 xlo xhi
           0.000000  13.846270 ylo yhi
           0.000000  18.322176 zlo zhi
          -7.731775   0.246278  -0.138154 xy xz yz

Masses

    1    28.085500000 # Si3
    2    12.010700000 # C_3
    3     1.007940000 # H_
    4    15.999400000 # O_2

Bond Coeffs

    1      226.661263        1.866919  # Si3 C_3
    2      365.702108        1.692864  # Si3 O_2
    3      172.712984        1.470529  # Si3 H_
    4      331.069389        1.109401  # C_3 H_

Angle Coeffs

    1                      fourier      114.246973        0.343737        0.374972        0.281246 # C_3 Si3 C_3
    2                      fourier      157.882480        0.343737        0.374972        0.281246 # C_3 Si3 O_2
    3                      fourier      221.735285        0.343737        0.374972        0.281246 # O_2 Si3 O_2
    4                      fourier       32.417871        0.343737        0.374972        0.281246 # H_ Si3 H_
    5                      fourier       83.380072        0.343737        0.374972        0.281246 # H_ Si3 O_2
    6                      fourier       58.020602        0.343737        0.374972        0.281246 # C_3 Si3 H_
    7                      fourier       90.420412        0.343737        0.374972        0.281246 # Si3 C_3 H_
    8                      fourier       75.498766        0.343737        0.374972        0.281246 # H_ C_3 H_
    9              cosine/periodic       88.853997              -1               3 # Si3 O_2 Si3

Dihedral Coeffs

    1        0.089508               1               3 # C_3 Si3 C_3 H_
    2        0.333333               1               3 # C_3 Si3 O_2 Si3

Pair Coeffs

    1        0.402000        3.826410 # Si3 Si3
    2        0.105000        3.430851 # C_3 C_3
    3        0.044000        2.571134 # H_ H_
    4        0.060000        3.118146 # O_2 O_2

Atoms

       1      444        1     0.00000   13.84732    1.28682    5.05104
       2      444        1     0.00000    1.05049    3.21890    0.40181
       3      444        1     0.00000    2.91948    0.44248    8.78312
       4      444        1     0.00000   -0.76085    1.29130   10.91036
       5      444        1     0.00000    1.27069    2.33838    6.72550
       6      444        1     0.00000   13.45909    2.76510   17.50396
       7      444        1     0.00000    0.78003    2.77872   13.11983
       8      444        1     0.00000   -1.66944    6.51626   17.78990
       9      444        1     0.00000    0.01947    3.77996    9.14392
      10      444        1     0.00000   -3.69599    7.58949    9.92426
      11      444        1     0.00000   -1.24965    7.57579    5.75675
      12      444        1     0.00000   -0.84866    5.17837   13.74755
      13      444        1     0.00000   10.98173    5.75450   16.03958
      14      444        1     0.00000   -1.14415    7.45811   11.79272
      15      444        1     0.00000    9.00864   10.49476    3.19178
      16      444        1     0.00000   -3.24353   11.81324   16.98224
      17      444        1     0.00000   -2.68192    9.51091    7.64097
      18      444        1     0.00000   -5.81474   11.94592   10.45247
      19      444        1     0.00000   -3.72614   12.33906    6.69043
      20      444        1     0.00000   -1.42653    9.90273   13.49137
      21      444        1     0.00000   -5.54151   11.21492   14.82693
      22      444        1     0.00000   -3.18729   12.13307   12.34590
      23      444        1     0.00000    7.03584    0.73798    2.68141
      24      444        1     0.00000    2.42981    2.84121    3.96556
      25      444        1     0.00000    5.59404    2.26531    0.56824
      26      444        1     0.00000    8.11789   -0.01656    7.96102
      27      444        1     0.00000    4.18627    2.87083   10.31964
      28      444        1     0.00000    6.78840    2.70279    6.81852
      29      444        1     0.00000    3.63393    2.48001   16.81450
      30      444        1     0.00000    6.51120    3.11848   12.40305
      31      444        1     0.00000    4.77730    4.56161    2.57128
      32      444        1     0.00000    1.30256    8.09220    4.21877
      33      444        1     0.00000    5.52368    4.85256    8.55587
      34      444        1     0.00000    1.43079    6.04547   10.65708
      35      444        1     0.00000    4.03743    6.86590    6.50899
      36      444        1     0.00000    4.96442    4.31698   14.69116
      37      444        1     0.00000    0.93955    6.50627   16.04524
      38      444        1     0.00000    3.61036    6.37509   12.93927
      39      444        1     0.00000    0.74908    8.23992    1.31440
      40      444        1     0.00000   -1.38197   12.05170    4.61843
      41      444        1     0.00000    0.93912   10.64308   18.03538
      42      444        1     0.00000    2.73518    9.56345    7.66820
      43      444        1     0.00000   -1.06041   11.35632    9.23663
      44      444        1     0.00000    1.49388   11.93973    5.81605
      45      444        1     0.00000    2.82239    8.74565   14.91264
      46      444        1     0.00000   -0.41201   11.81023   15.48698
      47      444        1     0.00000    6.11022   13.75664    2.23371
      48      444        1     0.00000    8.34219    2.93442    4.23655
      49      444        1     0.00000   10.49357    2.47802   18.24099
      50      444        1     0.00000   11.81679    1.36091   12.70720
      51      444        1     0.00000    9.19017    4.67677    1.93997
      52      444        1     0.00000    6.32092    6.46332    4.48591
      53      444        1     0.00000    8.72469    6.29545   18.00161
      54      444        1     0.00000   11.29497    4.45938    9.81253
      55      444        1     0.00000    5.88352    6.93997   10.73568
      56      444        1     0.00000    8.82986    6.48401    6.31248
      57      444        1     0.00000   10.17342    3.44087   14.15441
      58      444        1     0.00000    6.43598    6.72288   15.80986
      59      444        1     0.00000    8.84557    7.48218   11.81881
      60      444        1     0.00000    7.70497    8.92501    0.97335
      61      444        1     0.00000    6.31877   11.51327    0.21063
      62      444        1     0.00000    4.25743   11.03254   10.10750
      63      444        1     0.00000    6.44035   10.83822    5.11246
      64      444        1     0.00000    7.63732    9.14878   14.02304
      65      444        1     0.00000    3.89092   10.61647   17.04926
      66      444        1     0.00000    6.57124   11.17007   11.90799
      67      444        2     0.00000   -1.59410    2.95293    4.28831
      68      444        2     0.00000   12.56150    0.74579    6.27062
      69      444        2     0.00000    0.43455    2.43638   14.89807
      70      444        2     0.00000   -2.71728    8.11644    0.27624
      71      444        2     0.00000   -2.02455    6.76250    4.28453
      72      444        2     0.00000   -0.89429    6.40963    7.14121
      73      444        2     0.00000   -5.45470   11.81664    2.02050
      74      444        2     0.00000    8.95442   10.62418    9.22307
      75      444        2     0.00000   -5.34088   12.49537    5.83268
      76      444        2     0.00000   10.26432    7.01903   14.93585
      77      444        2     0.00000   -2.14878    9.02715   14.95046
      78      444        2     0.00000    7.12659    2.30853   17.57194
      79      444        2     0.00000    9.06993    0.44614    9.45937
      80      444        2     0.00000    2.76884    1.08497    3.49919
      81      444        2     0.00000    5.15016    2.36984    6.08021
      82      444        2     0.00000    3.58518    1.12603   15.56892
      83      444        2     0.00000    1.47108    6.26962    3.86129
      84      444        2     0.00000    2.39645    7.64242    0.70579
      85      444        2     0.00000   -2.05742   10.69859    3.56159
      86      444        2     0.00000    0.22939   12.24368    0.70954
      87      444        2     0.00000    2.43866    6.83178    9.36657
      88      444        2     0.00000    0.34552   11.04505   10.38014
      89      444        2     0.00000   -1.96290   13.45977   11.90199
      90      444        2     0.00000    2.38236   12.29361    4.23585
      91      444        2     0.00000    0.41752   13.45392   15.39574
      92      444        2     0.00000   12.14684    0.47018    1.75869
      93      444        2     0.00000    9.91325    1.97687    4.30485
      94      444        2     0.00000   10.30876    0.32012   12.44484
      95      444        2     0.00000   12.80469    0.58192   14.06189
      96      444        2     0.00000   10.76561    5.58594    2.20099
      97      444        2     0.00000    9.51106    7.89160    5.31050
      98      444        2     0.00000    9.55787    3.92609   10.21480
      99      444        2     0.00000   10.13991    5.14804    6.34885
     100      444        2     0.00000    8.41193    7.03097    8.04153
     101      444        2     0.00000    6.05541    8.10463    1.15803
     102      444        2     0.00000   -6.39669   12.80406   14.37464
     103      444        2     0.00000    7.08542   12.65787   17.31704
     104      444        2     0.00000    4.32165   12.71616    9.32709
     105      444        2     0.00000    3.31984   10.68978   11.68645
     106      444        2     0.00000    4.97814   10.22944    4.14206
     107      444        2     0.00000    6.74074    9.71107    6.56643
     108      444        2     0.00000    3.87190   12.16333   16.05105
     109      444        3     0.00000    1.55758    2.16531    1.30040
     110      444        3     0.00000    1.17115    4.58768    0.96453
     111      444        3     0.00000   14.45950   -0.08230   10.43692
     112      444        3     0.00000   -1.49833    3.84950   16.51689
     113      444        3     0.00000   -1.78931    5.48386    0.37606
     114      444        3     0.00000   -1.16907    4.62672    9.05266
     115      444        3     0.00000   13.36161    1.42821   16.86142
     116      444        3     0.00000   -1.84522    4.45161   14.52608
     117      444        3     0.00000   -2.91871   10.71830   17.92750
     118      444        3     0.00000   -3.49299   13.07628   17.71474
     119      444        3     0.00000   -4.91642   10.08567    4.02971
     120      444        3     0.00000   -4.74001   10.57732   13.76453
     121      444        3     0.00000   -3.72021   12.57875   13.66046
     122      444        3     0.00000    1.20847    3.37375    3.31395
     123      444        3     0.00000    3.20627    3.38820   11.27495
     124      444        3     0.00000    2.22212    2.96713   12.86922
     125      444        3     0.00000    7.11845    4.45982   12.26212
     126      444        3     0.00000    7.53708    2.06039   12.58644
     127      444        3     0.00000    4.09118    5.62275    1.81219
     128      444        3     0.00000    2.54646    8.69398    4.72639
     129      444        3     0.00000    2.80459    6.09954    6.27214
     130      444        3     0.00000    1.93503    5.54559   16.54857
     131      444        3     0.00000   -0.25900    7.15781    1.44817
     132      444        3     0.00000    8.35700    0.57824    2.05434
     133      444        3     0.00000    1.44996    9.05770    8.16799
     134      444        3     0.00000   -2.36190   11.62200    9.87574
     135      444        3     0.00000    2.21690    9.87246   14.18699
     136      444        3     0.00000   -0.12383    0.60855    1.52875
     137      444        3     0.00000    9.90442    2.93811   16.97711
     138      444        3     0.00000   10.13023    1.13240   -0.01801
     139      444        3     0.00000   12.20448    4.29014   10.97278
     140      444        3     0.00000   11.79756    3.66727    8.65276
     141      444        3     0.00000    5.22013    7.98522    9.94817
     142      444        3     0.00000    9.45741    2.30237   14.79213
     143      444        3     0.00000    5.22345    7.13712   16.53018
     144      444        3     0.00000    9.22311    4.32504   13.43769
     145      444        3     0.00000    9.15989    6.14545   12.34982
     146      444        3     0.00000    6.87500    7.54740    3.66304
     147      444        3     0.00000    6.20128   12.19020    5.67916
     148      444        3     0.00000    5.78933   12.28400   12.47570
     149      444        3     0.00000   -0.74909    3.31327    3.68569
     150      444        3     0.00000   -1.78167    3.69119    5.08301
     151      444        3     0.00000   12.59122    2.92713    3.64076
     152      444        3     0.00000   11.60704    0.46546    5.81476
     153      444        3     0.00000   12.36784    1.56608    6.98000
     154      444        3     0.00000   12.93174   -0.11253    6.84258
     155      444        3     0.00000    0.81034    1.47203   15.24977
     156      444        3     0.00000   -0.64630    2.46291   15.06259
     157      444        3     0.00000    0.89472    3.22172   15.50820
     158      444        3     0.00000   -2.19556    8.89564   18.06695
     159      444        3     0.00000   -2.41150    8.23763    1.32244
     160      444        3     0.00000   -3.81146    8.01771    0.24574
     161      444        3     0.00000   -1.40598    5.95843    3.86638
     162      444        3     0.00000   -2.22868    7.48988    3.48726
     163      444        3     0.00000   -2.98380    6.32658    4.58914
     164      444        3     0.00000   -0.11992    5.68077    6.86842
     165      444        3     0.00000   -1.80165    5.85266    7.41072
     166      444        3     0.00000   -0.56045    6.95478    8.03711
     167      444        3     0.00000   -4.96877   11.31399    1.17088
     168      444        3     0.00000   -4.70203   12.45203    2.50506
     169      444        3     0.00000   -6.24165   12.46922    1.62670
     170      444        3     0.00000   -5.39882   10.59344    8.40096
     171      444        3     0.00000    7.95251   10.83218    8.82284
     172      444        3     0.00000    8.92042    9.63777    9.69324
     173      444        3     0.00000   -5.23203   12.29256    4.76545
     174      444        3     0.00000    1.94628   -0.35715    5.93507
     175      444        3     0.00000   -6.05080   11.76940    6.24508
     176      444        3     0.00000    9.27313    6.67583   14.62077
     177      444        3     0.00000   10.86974    7.17027   14.03557
     178      444        3     0.00000   10.14619    7.98357   15.44484
     179      444        3     0.00000   -1.42929    9.06203   15.78023
     180      444        3     0.00000   -2.31792    7.97155   14.72161
     181      444        3     0.00000   -3.09648    9.46211   15.28568
     182      444        3     0.00000    6.76833    1.90607   16.61558
     183      444        3     0.00000    8.03703    1.76170   17.84215
     184      444        3     0.00000    7.38585    3.36316   17.41787
     185      444        3     0.00000    9.88491    1.13837    9.21164
     186      444        3     0.00000    1.76524   13.42773    9.97075
     187      444        3     0.00000    8.37726    0.95341   10.14570
     188      444        3     0.00000    3.08582    1.02900    2.44927
     189      444        3     0.00000    1.86737    0.47136    3.62169
     190      444        3     0.00000    3.57013    0.65853    4.11688
     191      444        3     0.00000    5.19839    1.46580    5.46259
     192      444        3     0.00000    4.82978    3.20846    5.45502
     193      444        3     0.00000    4.40032    2.21725    6.86288
     194      444        3     0.00000    3.03109    0.26074   15.94443
     195      444        3     0.00000    4.61638    0.80067   15.36815
     196      444        3     0.00000    3.14885    1.44240   14.61395
     197      444        3     0.00000    1.32384    5.66465    4.76510
     198      444        3     0.00000    2.47863    6.05132    3.48700
     199      444        3     0.00000    0.75293    5.92704    3.10412
     200      444        3     0.00000    2.48213    7.65271   -0.38574
     201      444        3     0.00000    2.58967    6.62088    1.05690
     202      444        3     0.00000    3.18318    8.29509    1.10831
     203      444        3     0.00000   -1.22621   10.22557    3.01990
     204      444        3     0.00000   -2.76865   11.10031    2.82795
     205      444        3     0.00000   -2.56755    9.93173    4.15596
     206      444        3     0.00000    0.66813   13.15596    0.28550
     207      444        3     0.00000    0.61389   12.12696    1.73002
     208      444        3     0.00000   -0.86013   12.37250    0.76590
     209      444        3     0.00000    1.86080    6.91754    8.43984
     210      444        3     0.00000    3.29728    6.18684    9.16990
     211      444        3     0.00000    2.79765    7.82036    9.67021
     212      444        3     0.00000    1.27061   11.02614    9.79027
     213      444        3     0.00000    0.25421   10.08556   10.89973
     214      444        3     0.00000    0.42830   11.84060   11.13158
     215      444        3     0.00000    5.89235   -0.18326   10.83324
     216      444        3     0.00000    6.74554   -0.62774   12.34622
     217      444        3     0.00000    5.40947    0.53647   12.37709
     218      444        3     0.00000    1.85206   13.07440    3.67634
     219      444        3     0.00000    2.38716   11.38196    3.62200
     220      444        3     0.00000    3.42131   12.60731    4.39012
     221      444        3     0.00000    7.65955    0.27156   14.66987
     222      444        3     0.00000    1.46929   13.34524   15.11002
     223      444        3     0.00000    8.12589    0.10087   16.37471
     224      444        3     0.00000   11.99675    0.30470    0.68373
     225      444        3     0.00000   11.96771    1.52902    1.97207
     226      444        3     0.00000    3.67019   13.70701    2.28906
     227      444        3     0.00000   10.69562    2.60275    4.75241
     228      444        3     0.00000   10.25110    1.63465    3.32196
     229      444        3     0.00000    9.77496    1.11102    4.96399
     230      444        3     0.00000   10.53460   -0.63997   11.96883
     231      444        3     0.00000    9.53275    0.82769   11.86625
     232      444        3     0.00000    9.89006    0.10324   13.43607
     233      444        3     0.00000   13.87591    0.78082   14.00672
     234      444        3     0.00000    4.94030   13.34556   13.96762
     235      444        3     0.00000   12.43555    0.87354   15.05297
     236      444        3     0.00000   10.58930    6.59577    2.59317
     237      444        3     0.00000   11.33697    5.66844    1.27268
     238      444        3     0.00000   11.39040    5.04116    2.91968
     239      444        3     0.00000    9.57324    7.63756    4.24442
     240      444        3     0.00000   10.51513    8.17567    5.64880
     241      444        3     0.00000    8.87146    8.77618    5.39768
     242      444        3     0.00000    9.08339    4.59857   10.94001
     243      444        3     0.00000    9.59698    2.92720   10.66939
     244      444        3     0.00000    8.91554    3.87361    9.32551
     245      444        3     0.00000   10.41664    4.82727    5.33582
     246      444        3     0.00000    9.85390    4.26145    6.92499
     247      444        3     0.00000   11.02989    5.59303    6.81823
     248      444        3     0.00000    7.40386    7.46116    8.08017
     249      444        3     0.00000    9.10763    7.81564    8.35647
     250      444        3     0.00000    8.46256    6.20626    8.76035
     251      444        3     0.00000    6.13403    7.07044    1.50835
     252      444        3     0.00000    5.53867    8.10651    0.18925
     253      444        3     0.00000    5.42556    8.66318    1.86184
     254      444        3     0.00000   -6.47858   13.44417   15.25662
     255      444        3     0.00000    7.65443   12.60251   14.02656
     256      444        3     0.00000   -5.87957   13.35698   13.58415
     257      444        3     0.00000    6.42813   13.53515   17.28688
     258      444        3     0.00000    7.10270   12.20451   16.31989
     259      444        3     0.00000   -6.96804   12.99846   17.55691
     260      444        3     0.00000    3.51934   12.84015    8.58971
     261      444        3     0.00000    5.27756   12.77336    8.78490
     262      444        3     0.00000    4.29002   13.55963   10.02388
     263      444        3     0.00000    3.35125    9.60067   11.84499
     264      444        3     0.00000    2.27260   10.99423   11.71705
     265      444        3     0.00000    3.82916   11.14577   12.54714
     266      444        3     0.00000    4.08591   10.22308    4.77863
     267      444        3     0.00000    5.15645    9.18972    3.84242
     268      444        3     0.00000    4.78210   10.83275    3.24909
     269      444        3     0.00000    7.72908    9.85562    7.01563
     270      444        3     0.00000    6.64338    8.65534    6.29167
     271      444        3     0.00000    5.98810    9.91180    7.34338
     272      444        3     0.00000    3.16086   12.08329   15.21825
     273      444        3     0.00000    4.86662   12.32514   15.62451
     274      444        3     0.00000    3.61523   13.04648   16.65317
     275      444        4     0.00000    0.17140    1.43238    5.93921
     276      444        4     0.00000    2.11907    1.36434    7.71144
     277      444        4     0.00000   -0.54269    2.91293    0.15365
     278      444        4     0.00000    0.26133    1.54502   12.16188
     279      444        4     0.00000   -0.39290    2.30578    9.69536
     280      444        4     0.00000    0.63293    3.53933    7.63762
     281      444        4     0.00000   -0.06749    4.15035   12.73523
     282      444        4     0.00000   -2.55842    6.07915   16.46852
     283      444        4     0.00000   -2.42697    7.85542   10.89792
     284      444        4     0.00000   -1.61948    6.31796   12.86349
     285      444        4     0.00000   -3.57974    8.59864    8.65741
     286      444        4     0.00000   -2.35157    8.68714    6.28727
     287      444        4     0.00000   -5.87223   13.40403    9.66141
     288      444        4     0.00000   -3.57831   10.80149    7.24180
     289      444        4     0.00000   -3.73657   13.34711    7.99494
     290      444        4     0.00000   -0.61511    8.79315   12.57643
     291      444        4     0.00000   -4.60081   11.39826   16.16505
     292      444        4     0.00000   -4.41838   11.95179   11.28981
     293      444        4     0.00000   -2.50542   10.64150   12.51082
     294      444        4     0.00000    2.21549    3.04479    5.59647
     295      444        4     0.00000    5.87492    0.94827    1.52814
     296      444        4     0.00000    3.76271    1.39001    9.80297
     297      444        4     0.00000    7.34557    1.33136    7.49458
     298      444        4     0.00000    4.37991    1.93921   18.17023
     299      444        4     0.00000    2.16664    3.01349   17.32391
     300      444        4     0.00000    5.64246    2.75142   11.06570
     301      444        4     0.00000    3.68425    3.77251    3.47889
     302      444        4     0.00000    5.52652    3.59854    1.49896
     303      444        4     0.00000    0.13846    8.36309    5.34227
     304      444        4     0.00000    4.28271    3.88919    9.03481
     305      444        4     0.00000    6.69192    3.91594    7.93684
     306      444        4     0.00000    1.09815    4.51199   10.14394
     307      444        4     0.00000    0.03878    6.88269   10.85061
     308      444        4     0.00000    4.95374    6.01370    7.57105
     309      444        4     0.00000    4.44348    3.74508   16.12458
     310      444        4     0.00000    5.55101    3.10663   13.75759
     311      444        4     0.00000    0.26406    5.90354   14.69587
     312      444        4     0.00000   -0.17060    6.81760   17.18785
     313      444        4     0.00000    2.26615    6.09776   12.07058
     314      444        4     0.00000    3.73790    5.07765   13.92839
     315      444        4     0.00000    0.93481    8.89580    2.82279
     316      444        4     0.00000   -1.00608   13.30936    3.62753
     317      444        4     0.00000   -2.46194   12.66435    5.70062
     318      444        4     0.00000    0.09356    9.42248    0.38033
     319      444        4     0.00000    3.63950    8.38196    6.97670
     320      444        4     0.00000   -1.28080    9.98722    8.33102
     321      444        4     0.00000   -0.70825   12.65537    8.29287
     322      444        4     0.00000   -0.04700   11.51930    5.42003
     323      444        4     0.00000    2.34074   10.78199    6.63849
     324      444        4     0.00000    1.39496   13.28048    6.77451
     325      444        4     0.00000    1.66093    7.93003   15.71248
     326      444        4     0.00000    3.53478    7.73425   13.83878
     327      444        4     0.00000   -0.38651   11.07664   14.01471
     328      444        4     0.00000    0.35855   10.79127   16.51041
     329      444        4     0.00000   -1.96935   12.04151   15.96624
     330      444        4     0.00000   14.08284    0.15557    3.84786
     331      444        4     0.00000    7.09255    2.09293    3.58057
     332      444        4     0.00000    7.90633    3.24724    5.76621
     333      444        4     0.00000   11.82083    3.09743    0.03168
     334      444        4     0.00000   12.74394    1.52891   11.35266
     335      444        4     0.00000    8.53867    4.32792    3.39120
     336      444        4     0.00000    9.44425    3.22068    1.20576
     337      444        4     0.00000    5.89740    5.18948    3.55815
     338      444        4     0.00000    4.91931    7.01653    5.14936
     339      444        4     0.00000   10.09881    5.64888   17.42126
     340      444        4     0.00000    8.12750    5.55346    1.01549
     341      444        4     0.00000   11.34779    6.06463    9.37504
     342      444        4     0.00000    6.13847    5.58214    9.87116
     343      444        4     0.00000    4.93935    6.52377   12.01068
     344      444        4     0.00000    7.38502    6.01599    5.61285
     345      444        4     0.00000   11.29939    2.87959   13.10972
     346      444        4     0.00000   10.95049    4.28719   15.31763
     347      444        4     0.00000    6.16589    5.39292   14.89860
     348      444        4     0.00000    7.55331    6.21158   16.88117
     349      444        4     0.00000   10.00699    7.91963   10.76206
     350      444        4     0.00000    7.34847    7.47809   11.18215
     351      444        4     0.00000    8.70350    8.00703    0.02944
     352      444        4     0.00000    8.53471    9.14710    2.35838
     353      444        4     0.00000    7.48955   10.37524    0.24522
     354      444        4     0.00000    6.16234   12.17019    1.72239
     355      444        4     0.00000    3.67924   10.05782    8.91183
     356      444        4     0.00000    7.75882   10.96322    4.12397
     357      444        4     0.00000    6.90700    7.92467   14.80952
     358      444        4     0.00000    8.79946    8.59126   13.01450
     359      444        4     0.00000    8.33590   10.09761   15.15193
     360      444        4     0.00000    3.91669    9.32698   16.00367
     361      444        4     0.00000    5.17525   10.61996   18.06206
     362      444        4     0.00000    2.56854   10.50384   17.99714
     363      444        4     0.00000    8.04998   11.76637   11.56670
     364      444        4     0.00000    5.82505   10.62268   10.54901
     365      444        4     0.00000    6.60140   10.01468   13.08852

Bonds

       1        1        1       67
       2        1        1       68
       3        2        1      275
       4        2        1      330
       5        3        2      109
       6        3        2      110
       7        2        2      277
       8        2        2      299
       9        2        3      276
      10        2        3      287
      11        2        3      289
      12        2        3      296
      13        3        4      111
      14        2        4      278
      15        2        4      279
      16        2        4      334
      17        2        5      275
      18        2        5      276
      19        2        5      280
      20        2        5      294
      21        3        6      112
      22        3        6      115
      23        2        6      277
      24        2        6      333
      25        1        7       69
      26        3        7      124
      27        2        7      278
      28        2        7      281
      29        1        8       70
      30        3        8      113
      31        2        8      282
      32        2        8      312
      33        3        9      114
      34        2        9      279
      35        2        9      280
      36        2        9      306
      37        2       10      283
      38        2       10      285
      39        2       10      341
      40        2       10      349
      41        1       11       71
      42        1       11       72
      43        2       11      286
      44        2       11      303