Created on Mon Oct 06 08:33:42 2025 

         331 atoms
         336 bonds
         626 angles
         732 dihedrals

           8 atom types
           4 bond types
           9 angle types
           2 dihedral types
           0.000000  15.708732 xlo xhi
           0.000000  13.086792 ylo yhi
           0.000000  17.524803 zlo zhi
          -8.204242  -0.145779  -2.005610 xy xz yz

Masses

    1    28.085500000 # Si3
    2    12.010700000 # C_3
    3     1.007940000 # H_
    4    15.999400000 # O_2
    5    28.085500000 # Si3
    6    12.010700000 # C_3
    7     1.007940000 # H_
    8    15.999400000 # O_2

Bond Coeffs

    1      226.661263        1.866919  # Si3 C_3
    2      365.702108        1.692864  # Si3 O_2
    3      172.712984        1.470529  # Si3 H_
    4      331.069389        1.109401  # C_3 H_

Angle Coeffs

    1                      fourier      114.246973        0.343737        0.374972        0.281246 # C_3 Si3 C_3
    2                      fourier      157.882480        0.343737        0.374972        0.281246 # C_3 Si3 O_2
    3                      fourier      221.735285        0.343737        0.374972        0.281246 # O_2 Si3 O_2
    4                      fourier       58.020602        0.343737        0.374972        0.281246 # C_3 Si3 H_
    5                      fourier       32.417871        0.343737        0.374972        0.281246 # H_ Si3 H_
    6                      fourier       83.380072        0.343737        0.374972        0.281246 # H_ Si3 O_2
    7                      fourier       90.420412        0.343737        0.374972        0.281246 # Si3 C_3 H_
    8                      fourier       75.498766        0.343737        0.374972        0.281246 # H_ C_3 H_
    9              cosine/periodic       88.853997              -1               3 # Si3 O_2 Si3

Dihedral Coeffs

    1        0.089508               1               3 # C_3 Si3 C_3 H_
    2        0.333333               1               3 # C_3 Si3 O_2 Si3

Pair Coeffs

    1        0.402000        3.826410 # Si3 Si3
    2        0.105000        3.430851 # C_3 C_3
    3        0.044000        2.571134 # H_ H_
    4        0.060000        3.118146 # O_2 O_2
    5        0.402000        3.826410 # Si3 Si3
    6        0.105000        3.430851 # C_3 C_3
    7        0.044000        2.571134 # H_ H_
    8        0.060000        3.118146 # O_2 O_2

Atoms

       1      444        1     0.00000   -0.80350    2.27469    5.19999
       2      444        1     0.00000    1.46292    0.50843   17.02379
       3      444        1     0.00000   -5.81060   11.18343    5.52930
       4      444        1     0.00000   14.05617    0.75248    9.71638
       5      444        1     0.00000    2.19654   -0.95270   12.64875
       6      444        1     0.00000    1.07685    1.27304   10.95919
       7      444        1     0.00000    0.11859    4.74729    3.42077
       8      444        1     0.00000   -2.82034    7.23634    5.12748
       9      444        1     0.00000   -0.47512    2.77905   13.19215
      10      444        1     0.00000   -2.37973    6.32009   11.64304
      11      444        1     0.00000    8.01599    8.62504    3.52142
      12      444        1     0.00000   -2.66444    9.74551    6.83522
      13      444        1     0.00000   -6.78652   10.59613    8.49154
      14      444        1     0.00000   10.87883    4.86606   12.94661
      15      444        1     0.00000   -6.88966    9.76241   14.32926
      16      444        1     0.00000   -4.70571    9.96664   10.73450
      17      444        1     0.00000    5.27326    0.67540    4.18827
      18      444        1     0.00000    5.73994   -0.32933   16.57647
      19      444        1     0.00000    8.01471   -0.45479    8.85723
      20      444        1     0.00000    3.89142    1.53784    9.50750
      21      444        1     0.00000    7.09274    1.52257    6.50792
      22      444        1     0.00000    3.67044    0.79120   14.70310
      23      444        1     0.00000    5.16328    4.32298    0.81248
      24      444        1     0.00000    3.08299    4.51727   17.18610
      25      444        1     0.00000    5.59696    3.73308    8.16724
      26      444        1     0.00000   -0.06135    5.23718    9.83201
      27      444        1     0.00000    3.89711    5.84524    6.60736
      28      444        1     0.00000    5.70359    3.09971   14.10005
      29      444        1     0.00000    0.42859    4.48497   15.62140
      30      444        1     0.00000    2.62083    5.13885   11.42284
      31      444        1     0.00000   -1.06373    8.96496    1.87370
      32        1        5     0.00000    1.59585    9.52969   17.05615
      33      444        1     0.00000   -1.73960   10.13232    9.68112
      34      444        1     0.00000    0.92437    9.47908    4.25054
      35      444        1     0.00000    2.05136    7.54740   13.31021
      36      444        1     0.00000   10.32797    6.04454   15.74598
      37      444        1     0.00000    0.57960    9.87764   11.69896
      38      444        1     0.00000    9.43748    2.03449    4.43104
      39      444        1     0.00000    4.94880   12.09480    7.17802
      40      444        1     0.00000    9.85634    1.05502   10.79880
      41      444        1     0.00000   12.02398    1.62276    6.13663
      42      444        1     0.00000    8.55438    0.84339   16.70152
      43      444        1     0.00000   12.26586   -0.56453   11.75376
      44      444        1     0.00000    9.95450    4.53051    2.63915
      45      444        1     0.00000   10.89597    3.16161    8.65131
      46      444        1     0.00000    9.74964    5.35111    6.91308
      47      444        1     0.00000    5.84360    5.38814   16.07080
      48      444        1     0.00000    3.88689   10.20143    3.61815
      49      444        1     0.00000    6.55893    8.55840    8.48903
      50      444        1     0.00000    6.09032    9.81380    5.68417
      51        1        5     0.00000    4.51112   10.47861   16.57428
      52      444        2     0.00000    0.39626    1.78246    6.52203
      53      444        2     0.00000   -0.86910    1.03021    3.81094
      54      444        2     0.00000    2.39735    1.44889    0.81564
      55      444        2     0.00000    1.85840    4.24536    2.99404
      56      444        2     0.00000   -1.01320    4.68450    1.93802
      57      444        2     0.00000   -2.23651    5.89345    6.26897
      58      444        2     0.00000   -0.92782    1.36271   14.28708
      59      444        2     0.00000   -1.99279    7.16867   13.24915
      60      444        2     0.00000    8.67049    9.53295    2.02832
      61      444        2     0.00000   11.35252    3.24297   13.73053
      62      444        2     0.00000   -7.09695    9.73028   16.18363
      63      444        2     0.00000    7.45945    8.90494   13.37682
      64      444        2     0.00000    9.21654    4.88554   12.11157
      65      444        2     0.00000   -5.31863    8.30011   11.22306
      66      444        2     0.00000    3.75540    1.68550    4.55571
      67      444        2     0.00000    5.52367   -2.01587   17.31466
      68      444        2     0.00000    3.74026    0.26744    8.17338
      69      444        2     0.00000    5.11370    1.15197   10.84547
      70      444        2     0.00000    6.29686    1.42210    2.83101
      71      444        2     0.00000    2.37240    7.33203    1.08130
      72      444        2     0.00000    6.82655    4.05745    9.51050
      73      444        2     0.00000    0.19185    6.78723    8.85250
      74      444        2     0.00000    2.38989    4.74703    6.67183
      75      444        2     0.00000    4.51897    6.12860    4.86734
      76      444        2     0.00000    7.11998    2.03821   13.54043
      77      444        2     0.00000    3.87931    6.17289   10.52878
      78      444        2     0.00000   -2.52775   10.03816    2.29913
      79        1        6     0.00000    1.19151   10.37026   18.67606
      80      444        2     0.00000    1.11549    8.43642    5.77011
      81      444        2     0.00000    0.37538   11.22390    4.59986
      82      444        2     0.00000    1.15943   11.61189    8.11681
      83        1        6     0.00000    0.11576    9.58029   15.93066
      84      444        2     0.00000   -4.27751    7.20571   16.69145
      85      444        2     0.00000   -0.17724   11.15407   12.81519
      86      444        2     0.00000   10.08420    0.41950   15.73627
      87      444        2     0.00000   11.35430    3.70147    1.72565
      88      444        2     0.00000    8.10791    5.54363    6.07203
      89      444        2     0.00000    4.84783    9.76096    2.10334
      90      444        2     0.00000    5.22566    9.27786    9.56357
      91      444        2     0.00000   10.21237    6.90598    7.83243
      92      444        2     0.00000    3.72777    8.34352   13.26563
      93        1        6     0.00000    5.30839    8.78365   16.49631
      94        1        6     0.00000    4.85303   11.32911   18.20804
      95        1        6     0.00000    5.14247   11.55319   15.19325
      96      444        3     0.00000    0.29844   -0.25876   16.49934
      97      444        3     0.00000   -6.73959   12.11851    4.83628
      98      444        3     0.00000   -4.56313   11.90740    5.86753
      99      444        3     0.00000   13.19815    1.94487    9.64146
     100      444        3     0.00000    1.10073    3.78305    0.07676
     101      444        3     0.00000    0.12037    6.12631    3.98179
     102      444        3     0.00000   -4.30777    7.35524    5.07471
     103      444        3     0.00000   -2.34065    7.03656    3.73217
     104      444        3     0.00000   -1.63906    3.24772   12.40555
     105      444        3     0.00000   -2.74616    7.26168   10.55184
     106      444        3     0.00000    9.13868    7.94455    4.22344
     107      444        3     0.00000    7.02626    7.58552    3.10378
     108      444        3     0.00000   -4.12940    9.64772    7.02666
     109      444        3     0.00000   -2.22587   11.10621    6.44487
     110      444        3     0.00000   -7.41643   11.87024    8.86909
     111      444        3     0.00000   -5.57417    9.11644   14.04029
     112      444        3     0.00000   -3.33245   12.37374    3.82509
     113      444        3     0.00000   -5.45689   10.06049    4.61714
     114      444        3     0.00000    6.38302    5.17037    0.75230
     115      444        3     0.00000    4.80976    4.00140    2.21776
     116      444        3     0.00000   -0.58794    4.11929    9.00133
     117      444        3     0.00000    3.61651    7.15463    7.26850
     118      444        3     0.00000   -0.40248    3.66633   16.55265
     119      444        3     0.00000    5.34211    4.13583   13.09334
     120      444        3     0.00000    3.17852    3.89091   11.98607
     121      444        3     0.00000   -0.28426    9.61076    0.77162
     122      444        3     0.00000   -1.49355    7.62569    1.37633
     123        1        7     0.00000    2.01806    8.11834   17.30972
     124      444        3     0.00000    0.08764    5.92299   15.77274
     125      444        3     0.00000    1.57276    7.40103   14.70462
     126      444        3     0.00000   10.36473    4.68023   16.36636
     127      444        3     0.00000    8.90587    6.51052   15.79610
     128      444        3     0.00000    1.81494   10.36997   11.02874
     129      444        3     0.00000    9.17470    0.91487    3.51514
     130      444        3     0.00000    4.01003   11.09932    7.72039
     131      444        3     0.00000    9.58113    1.46351   12.18410
     132      444        3     0.00000    8.21789    2.28983   16.57659
     133      444        3     0.00000    8.85874    2.53587    0.62865
     134      444        3     0.00000   12.12098    0.12492   13.05950
     135      444        3     0.00000    4.02713   11.05005   11.90146
     136      444        3     0.00000   10.47607    5.67747    3.43968
     137      444        3     0.00000    8.91143    5.05245    1.70800
     138      444        3     0.00000   12.05526    3.96993    9.07823
     139      444        3     0.00000   10.78220    4.97298    5.90267
     140      444        3     0.00000    6.00465    6.36942   14.96615
     141      444        3     0.00000    6.78263    5.65514   17.19006
     142      444        3     0.00000    3.76537   11.68095    3.77239
     143      444        3     0.00000    6.77689    7.11616    8.74191
     144      444        3     0.00000    1.41520    1.79416    6.11481
     145      444        3     0.00000    0.18808    0.76715    6.88532
     146      444        3     0.00000    0.36455    2.46395    7.38218
     147      444        3     0.00000   14.56778    0.03216    4.18329
     148      444        3     0.00000    0.11685    0.94202    3.32863
     149      444        3     0.00000   14.10848    1.31984    3.04390
     150      444        3     0.00000    2.74667    0.49844    0.39457
     151      444        3     0.00000    1.62153    1.20381    1.55867
     152      444        3     0.00000    3.23325    1.93557    1.33164
     153      444        3     0.00000    1.89746    3.17367    2.76655
     154      444        3     0.00000    2.53104    4.43258    3.83860
     155      444        3     0.00000    2.24600    4.78322    2.12169
     156      444        3     0.00000   -1.99303    5.11078    2.18690
     157      444        3     0.00000   -1.16110    3.65479    1.58028
     158      444        3     0.00000   -0.60173    5.26909    1.10324
     159      444        3     0.00000   -1.13969    5.89537    6.31850
     160      444        3     0.00000   -2.54756    4.89888    5.92826
     161      444        3     0.00000   -2.62611    6.04924    7.28469
     162      444        3     0.00000   -0.03256    0.90623   14.72611
     163      444        3     0.00000   -1.42734    0.58641   13.69548
     164      444        3     0.00000   -1.60256    1.65781   15.10319
     165      444        3     0.00000   -1.14062    7.84822   13.14297
     166      444        3     0.00000   -1.73284    6.42303   14.01502
     167      444        3     0.00000   -2.86433    7.73438   13.60675
     168      444        3     0.00000    7.89115   10.10968    1.51318
     169      444        3     0.00000    9.06015    8.78920    1.31552
     170      444        3     0.00000   -6.22032   10.21557    2.29701
     171      444        3     0.00000   12.21184    3.39309   14.40099
     172      444        3     0.00000   11.64011    2.48814   12.98909
     173      444        3     0.00000   10.52785    2.83855   14.33264
     174      444        3     0.00000    8.39104    8.70772   16.51869
     175      444        3     0.00000   -7.89278   10.39526   16.54061
     176      444        3     0.00000   -6.15418   10.03526   16.65775
     177      444        3     0.00000    7.41718    7.83076   13.60999
     178      444        3     0.00000    7.62447    9.01364   12.29549
     179      444        3     0.00000    6.47960    9.34719   13.59963
     180      444        3     0.00000    8.41774    4.66455   12.83501
     181      444        3     0.00000    9.15237    4.15711   11.29491
     182      444        3     0.00000    9.02139    5.88245   11.69186
     183      444        3     0.00000   -4.98292    7.54212   10.50759
     184      444        3     0.00000    9.29185    8.29988   11.21805
     185      444        3     0.00000   -4.98051    8.01178   12.22551
     186      444        3     0.00000    2.97285    1.51564    3.80416
     187      444        3     0.00000    3.98953    2.75799    4.57459
     188      444        3     0.00000    3.35689    1.40233    5.53796
     189      444        3     0.00000   -2.71991   10.33983   16.49491
     190      444        3     0.00000   -3.46819   12.99722    0.36029
     191      444        3     0.00000   -1.70630   12.79878    0.45132
     192      444        3     0.00000    3.67200   -0.74275    8.59008
     193      444        3     0.00000    4.60012    0.29063    7.49333
     194      444        3     0.00000    2.82966    0.46676    7.59010
     195      444        3     0.00000    4.95358    0.15373   11.27253
     196      444        3     0.00000    4.96994    1.89009   11.64581
     197      444        3     0.00000    6.15086    1.20788   10.49653
     198      444        3     0.00000    5.67790    1.57619    1.94189
     199      444        3     0.00000    7.14332    0.78050    2.55443
     200      444        3     0.00000    6.69535    2.40467    3.12476
     201      444        3     0.00000    2.10555    8.36859    0.83620
     202      444        3     0.00000    2.98928    7.35558    1.98810
     203      444        3     0.00000    1.44279    6.80088    1.32955
     204      444        3     0.00000    7.59231    4.77784    9.20208
     205      444        3     0.00000    7.34526    3.12932    9.78641
     206      444        3     0.00000    6.31835    4.44625   10.40377
     207      444        3     0.00000   -0.74907    7.23213    8.50824
     208      444        3     0.00000    0.81800    6.57721    7.97638
     209      444        3     0.00000    0.70437    7.54404    9.46085
     210      444        3     0.00000    2.59539    3.78791    6.17833
     211      444        3     0.00000    1.51133    5.18962    6.18293
     212      444        3     0.00000    2.13360    4.52291    7.71647
     213      444        3     0.00000    4.74054    5.17817    4.36007
     214      444        3     0.00000    5.44292    6.72043    4.88604
     215      444        3     0.00000    3.77582    6.67567    4.26932
     216      444        3     0.00000    7.17709    2.02548   12.44601
     217      444        3     0.00000    7.03094    1.00094   13.88760
     218      444        3     0.00000    8.06034    2.45451   13.92675
     219      444        3     0.00000    3.42879    7.13664   10.25173
     220      444        3     0.00000    4.23456    5.70148    9.60713
     221      444        3     0.00000    4.74994    6.37742   11.16912
     222      444        3     0.00000   -3.27320    9.49967    2.90078
     223      444        3     0.00000   -3.01427   10.41351    1.38937
     224      444        3     0.00000   -2.20006   10.90796    2.88350
     225        1        7     0.00000    1.00243   11.44256   18.52081
     226        1        7     0.00000    1.99038   10.27287   19.42307
     227        1        7     0.00000    0.28001    9.92672   19.10039
     228      444        3     0.00000    1.95754    8.79825    6.37771
     229      444        3     0.00000    1.33370    7.39974    5.47862
     230      444        3     0.00000    0.21157    8.42752    6.38939
     231      444        3     0.00000    0.21057   11.77760    3.66691
     232      444        3     0.00000    1.14978   11.76582    5.16191
     233      444        3     0.00000   -0.55582   11.25935    5.17953
     234      444        3     0.00000    0.75618   10.90210    7.38295
     235      444        3     0.00000    1.69086   11.04093    8.88972
     236      444        3     0.00000   10.09257   -0.83246    7.60512
     237        1        7     0.00000    0.33837    9.18781   14.93341
     238        1        7     0.00000   -0.25290   10.60898   15.82642
     239        1        7     0.00000   -0.68737    8.96278   16.35767
     240      444        3     0.00000   -3.24841    6.81913   16.72497
     241      444        3     0.00000   -4.49363    9.32055    0.19828
     242      444        3     0.00000   -4.26029    8.19940   16.22197
     243      444        3     0.00000    7.72710   -1.05162   12.23000
     244      444        3     0.00000    8.72883   -1.60685   13.59574
     245      444        3     0.00000   -1.07481   10.75713   13.31147
     246      444        3     0.00000   10.92937    1.04687   16.05619
     247      444        3     0.00000    9.92169    0.59834   14.66377
     248      444        3     0.00000   10.36293   -0.63468   15.87036
     249      444        3     0.00000   11.80693    4.37882    0.98677
     250      444        3     0.00000   11.00114    2.80332    1.20274
     251      444        3     0.00000   12.13740    3.39690    2.43272
     252      444        3     0.00000    7.74941    4.60188    5.64341
     253      444        3     0.00000    8.23694    6.26253    5.25020
     254      444        3     0.00000    7.33743    5.93739    6.74612
     255      444        3     0.00000    5.15642    8.70667    2.10485
     256      444        3     0.00000    5.74701   10.38664    2.02886
     257      444        3     0.00000    4.23574    9.93037    1.20958
     258      444        3     0.00000    5.36563    8.89378   10.58458
     259      444        3     0.00000    4.21535    9.01164    9.22751
     260      444        3     0.00000    5.31097   10.37147    9.61242
     261      444        3     0.00000   -5.49526    7.78015    7.16796
     262      444        3     0.00000   -4.50871    6.83051    8.30982
     263      444        3     0.00000    9.46855    7.09262    8.61999
     264      444        3     0.00000    4.03092    8.60535   12.24435
     265      444        3     0.00000    4.48527    7.67370   13.69562
     266      444        3     0.00000    3.70295    9.26452   13.86405
     267        1        7     0.00000    6.07649    8.64496   17.26670
     268        1        7     0.00000    5.78116    8.62931   15.52012
     269        1        7     0.00000    4.55382    7.99653   16.62364
     270        1        7     0.00000    5.94008   11.44285   18.34139
     271        1        7     0.00000    4.47149   10.77252   19.07505
     272        1        7     0.00000    4.41027   12.33563   18.23139
     273        1        7     0.00000    4.97034   11.08803   14.21223
     274        1        7     0.00000    6.22106   11.73808   15.29162
     275        1        7     0.00000    4.63934   12.52787   15.19884
     276      444        4     0.00000   -0.10484    1.21412    9.83182
     277      444        4     0.00000    1.19097   -0.24561   11.58233
     278      444        4     0.00000   -0.44258    3.75922    4.61773
     279      444        4     0.00000    0.70380    2.31312   12.14712
     280      444        4     0.00000   -2.22265    8.70325    5.65469
     281      444        4     0.00000   -6.51235   10.57175    6.88634
     282      444        4     0.00000   -3.67061    5.31578   11.87260
     283      444        4     0.00000    1.37596   -1.73691   13.81899
     284      444        4     0.00000   -5.38037   10.40489    9.30358
     285      444        4     0.00000   -5.04907   11.08092   11.87584
     286      444        4     0.00000    2.42639    1.74222   10.22602
     287      444        4     0.00000    6.19945    0.55417    5.55815
     288      444        4     0.00000    7.47635    0.68046    7.83240
     289      444        4     0.00000    3.11285    0.22561   13.29099
     290      444        4     0.00000    4.80674   -0.26271   15.23237
     291      444        4     0.00000    2.45813    0.89009   15.77208
     292      444        4     0.00000    5.43198    2.89878    0.04849
     293      444        4     0.00000    3.88617    5.08774    0.13117
     294      444        4     0.00000    4.28297    2.97312    8.78652
     295      444        4     0.00000    6.24310    2.83372    6.94007
     296      444        4     0.00000   -1.09813    5.46009   11.09168
     297      444        4     0.00000    5.10451    5.13533    7.49883
     298      444        4     0.00000    4.33704    2.24851   14.43905
     299      444        4     0.00000    0.09658    4.03505   14.08885
     300      444        4     0.00000    2.01690    4.24466   15.97324
     301      444        4     0.00000    1.38951    4.74370   10.41613
     302      444        4     0.00000   -1.92808    9.33920    8.26158
     303      444        4     0.00000   -1.44971   11.70903    9.35272
     304      444        4     0.00000   -3.08376   10.02335   10.57364
     305      444        4     0.00000   -0.08579    8.74799    3.17753
     306      444        4     0.00000    2.04744    6.04589   12.67739
     307      444        4     0.00000   -4.89063    5.98255   14.17707
     308      444        4     0.00000   -0.49843    9.48304   10.50729
     309      444        4     0.00000    0.96994    8.50650   12.50505
     310      444        4     0.00000    8.44604    1.98336    5.72418
     311      444        4     0.00000   13.87185   -0.15975    8.37582
     312      444        4     0.00000    8.51480    0.36685   10.19299
     313      444        4     0.00000   13.39509    2.43617    5.87880
     314      444        4     0.00000   10.99305    1.91407    4.91578
     315      444        4     0.00000   12.32292    0.01115    6.19046
     316      444        4     0.00000    7.30109   -0.09244   16.13912
     317      444        4     0.00000   13.68536   -0.14298   11.04704
     318      444        4     0.00000   11.04393   -0.07556   10.76871
     319      444        4     0.00000    9.21029    3.45074    3.65518
     320      444        4     0.00000   10.29060    2.37213    9.95022
     321      444        4     0.00000   11.35862    2.03449    7.55929
     322      444        4     0.00000    9.72179    4.10413    8.03340
     323      444        4     0.00000    6.17432    3.89122   15.47678
     324      444        4     0.00000    4.29734    5.47250   16.61989
     325      444        4     0.00000    2.40415    9.54181    3.50890
     326      444        4     0.00000    7.95791    9.33648    8.87777
     327      444        4     0.00000    7.27968    9.67766    4.57881
     328      444        4     0.00000    4.63838    9.60473    4.97088
     329      444        4     0.00000    6.25312    8.71297    6.87126
     330      444        4     0.00000    6.13086   11.32941    6.32722
     331        1        8     0.00000    2.87046   10.31099   16.33324

Bonds

       1        1        1       52
       2        1        1       53
       3        2        1      278
       4        2        1      313
       5        1        2       54
       6        3        2       96
       7        3        2      100
       8        2        2      291
       9        3        3       97
      10        3        3       98
      11        3        3      113
      12        2        3      281
      13        3        4       99
      14        2        4      276
      15        2        4      311
      16        2        4      317
      17        2        5      277
      18        2        5      283
      19        2        5      285
      20        2        5      289
      21        2        6      276
      22        2        6      277
      23        2        6      279
      24        2        6      286
      25        1        7       55
      26        1        7       56
      27        3        7      101
      28        2        7      278
      29        1        8       57
      30        3        8      102
      31        3        8      103
      32        2        8      280
      33        1        9       58
      34        3        9      104
      35        2        9      279
      36        2        9      299
      37        1       10       59
      38        3       10      105
      39        2       10      282
      40        2       10      296
      41        1       11       60
      42        3       11      106
      43        3       11      107
      44        2       11      327
      45        3       12      108
      46        3       12      109
      47        2       12      280
      48        2       12      302
      49        3       13      110
      50        2       13      281
      51        2       13      284
      52        2       13      326
      53        1       14       61
      54        1       14       64
      55        2       14      282
      56        2       14      307
      57        1       15       62
      58        1       15       63
      59        3       15      111
      60        2       15      283
      61        1       16       65
      62        2       16      284
      63        2       16      285
      64        2       16      304
      65        1       17       66
      66        1       17       70
      67        3       17      112
      68        2       17      287
      69        1       18       67
      70        2       18      290
      71        2       18      292
      72        2       18      316
      73        1       19       82
      74        2       19      288
      75        2       19      303
      76        2       19      312
      77        1       20       68
      78        1       20       69
      79        2       20      286
      80        2       20      294
      81        2       21      287
      82        2       21      288
      83        2       21      295
      84        2       21      310
      85        2       22      289
      86        2       22      290
      87        2       22      291
      88        2       22      298
      89        3       23      114
      90        3       23      115
      91        2       23      292
      92        2       23      293
      93        1       24       71
      94        2       24      293
      95        2       24      300
      96        2       24      324
      97        1       25       72
      98        2       25      294
      99        2       25      295
     100        2       25      297
     101        1       26       73
     102        3       26      116
     103        2       26      296
     104        2       26      301