Created on Sun Oct 05 23:43:30 2025 

         271 atoms
         291 bonds
         551 angles
         687 dihedrals

           4 atom types
           4 bond types
           9 angle types
           2 dihedral types
           0.000000  14.748733 xlo xhi
           0.000000  13.431830 ylo yhi
           0.000000  16.609572 zlo zhi
          -6.197201  -1.004749  -1.860559 xy xz yz

Masses

    1    28.085500000 # Si3
    2     1.007940000 # H_
    3    12.010700000 # C_3
    4    15.999400000 # O_2

Bond Coeffs

    1      172.712984        1.470529  # Si3 H_
    2      226.661263        1.866919  # Si3 C_3
    3      365.702108        1.692864  # Si3 O_2
    4      331.069389        1.109401  # H_ C_3

Angle Coeffs

    1                      fourier       58.020602        0.343737        0.374972        0.281246 # H_ Si3 C_3
    2                      fourier       83.380072        0.343737        0.374972        0.281246 # H_ Si3 O_2
    3                      fourier      157.882480        0.343737        0.374972        0.281246 # C_3 Si3 O_2
    4                      fourier      221.735285        0.343737        0.374972        0.281246 # O_2 Si3 O_2
    5                      fourier       32.417871        0.343737        0.374972        0.281246 # H_ Si3 H_
    6                      fourier      114.246973        0.343737        0.374972        0.281246 # C_3 Si3 C_3
    7                      fourier       90.420412        0.343737        0.374972        0.281246 # Si3 C_3 H_
    8                      fourier       75.498766        0.343737        0.374972        0.281246 # H_ C_3 H_
    9              cosine/periodic       88.853997              -1               3 # Si3 O_2 Si3

Dihedral Coeffs

    1        0.089508               1               3 # H_ Si3 C_3 H_
    2        0.333333               1               3 # H_ Si3 O_2 Si3

Pair Coeffs

    1        0.402000        3.826410 # Si3 Si3
    2        0.044000        2.571134 # H_ H_
    3        0.105000        3.430851 # C_3 C_3
    4        0.060000        3.118146 # O_2 O_2

Atoms

       1      444        1     0.00000   -4.38185   12.99552    2.18572
       2      444        1     0.00000   13.18907    1.27313    4.01830
       3      444        1     0.00000    0.77606    1.76235    0.32570
       4      444        1     0.00000   -3.91595   12.55008    7.04696
       5      444        1     0.00000    1.20056    1.56515    5.43590
       6      444        1     0.00000   12.09190    1.40265   15.68792
       7      444        1     0.00000   -0.10764    3.82902    7.21409
       8      444        1     0.00000   -3.61332    5.99624    9.44598
       9      444        1     0.00000   -0.76737    5.77813   10.84361
      10      444        1     0.00000   -5.36992   10.37130    3.62067
      11      444        1     0.00000   -1.71919    8.37077    6.91707
      12      444        1     0.00000   -2.56098   10.66613    4.97839
      13      444        1     0.00000   -2.26227    7.43064   13.00367
      14      444        1     0.00000   -5.30072    8.42733   15.41272
      15      444        1     0.00000   -3.33603    9.92956   11.29981
      16      444        1     0.00000    1.42599   13.08937    1.73093
      17      444        1     0.00000    7.27093    2.28063    0.07582
      18      444        1     0.00000    0.35857   12.39261    7.53399
      19      444        1     0.00000    2.77634    0.55800    9.70250
      20      444        1     0.00000    5.98035    1.59865    5.89678
      21      444        1     0.00000    6.30597   -1.45115   13.28329
      22      444        1     0.00000    5.16583    0.89458   11.67699
      23      444        1     0.00000    5.02667    4.06182    1.23966
      24      444        1     0.00000    0.93929    6.47436    2.29994
      25      444        1     0.00000    1.56880    6.02355    8.89943
      26      444        1     0.00000    3.08899    5.70314    4.30221
      27      444        1     0.00000    4.54992    3.84597   12.51470
      28      444        1     0.00000    4.35801    5.86076   10.29994
      29      444        1     0.00000    2.71703    7.87351    0.12098
      30      444        1     0.00000   -0.30808   10.84246    2.89345
      31      444        1     0.00000    2.67251   10.94419   -0.00757
      32      444        1     0.00000    2.47352    7.76871    6.51971
      33      444        1     0.00000   -0.95587   10.32570    9.30271
      34      444        1     0.00000    1.55279   10.49680    5.36365
      35      444        1     0.00000   -1.00613    9.60290   14.93260
      36      444        1     0.00000    1.44294   10.15853   11.19746
      37      444        1     0.00000    5.99937   12.53518    1.99802
      38      444        1     0.00000    8.59340    1.60176    4.10414
      39      444        1     0.00000   11.39581   -0.24276    8.62314
      40      444        1     0.00000   10.95543    1.46455    6.04417
      41      444        1     0.00000   11.07963   -0.94374   13.80971
      42      444        1     0.00000    5.84947    6.34551    3.08782
      43      444        1     0.00000    9.80634    3.98186    7.38729
      44      444        1     0.00000    6.89876    6.53094    8.49805
      45      444        1     0.00000    8.62834    5.84364   10.94082
      46      444        1     0.00000    7.84041    8.26330    1.85992
      47      444        1     0.00000    7.59645   10.78220    0.02103
      48      444        1     0.00000    4.36206   10.54342    9.89999
      49      444        1     0.00000    7.78043    8.11919   12.83309
      50      444        1     0.00000    4.27109    9.68576   14.82009
      51      444        1     0.00000    6.85970   11.06464   11.92132
      52      444        2     0.00000    2.24573    0.11101    3.48989
      53      444        2     0.00000   12.66600    2.39128    3.20209
      54      444        2     0.00000    1.29278    1.19819   -0.95630
      55      444        2     0.00000    1.62567    2.89957    0.77665
      56      444        2     0.00000    2.45412    1.93828    4.77464
      57      444        2     0.00000   12.06156    3.93386   -0.09416
      58      444        2     0.00000   -0.50860    4.36364   11.18494
      59      444        2     0.00000   -3.94397    7.36244    9.00951
      60      444        2     0.00000   -0.60454    7.43260    6.69688
      61      444        2     0.00000   -3.02493    7.66091    6.94988
      62      444        2     0.00000   -3.25516    6.48913   13.54648
      63      444        2     0.00000   -4.32234    9.52280   15.23960
      64      444        2     0.00000   -4.38555    9.61043   10.29971
      65      444        2     0.00000    5.56746    0.48794   15.37965
      66      444        2     0.00000    7.81798   -0.96349    8.30092
      67      444        2     0.00000    1.64701   -0.25732   10.24244
      68      444        2     0.00000    7.27093   -1.10195   14.34549
      69      444        2     0.00000    4.17780    3.49453    2.32326
      70      444        2     0.00000    0.70618    7.64457    3.18244
      71      444        2     0.00000    3.48229    4.35967    4.75949
      72      444        2     0.00000    3.17002    4.28320   12.86875
      73      444        2     0.00000    4.04951    7.40635    0.57099
      74      444        2     0.00000   -1.92767   10.03566   15.98929
      75      444        2     0.00000   11.36033    0.10830    1.29158
      76      444        2     0.00000    8.88154    2.84086    3.35457
      77      444        2     0.00000   10.07255   -0.71620   12.75479
      78      444        2     0.00000    9.03737    4.88153    6.49134
      79      444        2     0.00000    6.88472    5.83181    7.19181
      80      444        2     0.00000    8.12035    4.80291   11.85417
      81      444        2     0.00000    4.56201    9.29874    9.14721
      82      444        2     0.00000    6.55636    7.49334   13.35144
      83      444        2     0.00000    3.99589    9.21622   13.45445
      84      444        2     0.00000   -0.64867   -1.61478   11.20043
      85      444        2     0.00000   -4.23209   11.17761   16.59949
      86      444        2     0.00000   -2.45672   11.87390    1.08431
      87      444        2     0.00000    4.02511    0.16303    1.31544
      88      444        2     0.00000   -4.04222   10.41648    8.19451
      89      444        2     0.00000   -5.49357   10.63873    7.20183
      90      444        2     0.00000   -5.34526   11.46670    8.76494
      91      444        2     0.00000   -2.22990    3.22018   14.07033
      92      444        2     0.00000   -0.85933    2.08950   14.12387
      93      444        2     0.00000   -1.07167    3.29716   15.41882
      94      444        2     0.00000   -0.55456    2.47564    9.24670
      95      444        2     0.00000   -1.68040    2.11770    7.92046
      96      444        2     0.00000   -1.91477    3.57721    8.89864
      97      444        2     0.00000   -1.85133    5.33913    6.31531
      98      444        2     0.00000   -1.52646    4.00946    5.19836
      99      444        2     0.00000   -0.37335    5.37023    5.31662
     100      444        2     0.00000    7.96347    9.94216    5.56470
     101      444        2     0.00000    7.10284   10.96003    4.39149
     102      444        2     0.00000    8.33156   11.68930    5.42231
     103      444        2     0.00000   -3.48822    6.88351   16.01937
     104      444        2     0.00000    9.72802    6.02650   15.84316
     105      444        2     0.00000   -3.68029    8.81260    0.72745
     106      444        2     0.00000   -4.31525   12.04517   12.04579
     107      444        2     0.00000   -3.13602   11.46227   13.23871
     108      444        2     0.00000   -4.75860   10.71947   13.14453
     109      444        2     0.00000    8.00191    2.11515   16.24466
     110      444        2     0.00000    8.62210    0.47859   15.92351
     111      444        2     0.00000    9.48562    2.92698    0.98619
     112      444        2     0.00000    1.62688    2.61243    9.01044
     113      444        2     0.00000    3.27779    2.95810    9.51900
     114      444        2     0.00000    2.03141    2.65848   10.74661
     115      444        2     0.00000    5.51701    0.30520    3.86046
     116      444        2     0.00000    4.70593    1.88559    3.81739
     117      444        2     0.00000    4.03432    0.54736    4.77641
     118      444        2     0.00000    5.33390    4.00182    6.15582
     119      444        2     0.00000    5.90696    3.30261    7.68656
     120      444        2     0.00000    4.28494    2.91078    7.08066
     121      444        2     0.00000    6.60726    2.01715   10.04069
     122      444        2     0.00000    7.24437    0.40681   10.44186
     123      444        2     0.00000    7.47451    1.76153   11.57237
     124      444        2     0.00000    3.17113    4.66232   -0.25587
     125      444        2     0.00000    3.89516    3.11400   -0.74770
     126      444        2     0.00000    3.70370    2.77524   15.45190
     127      444        2     0.00000   -1.11654    5.28081    2.94729
     128      444        2     0.00000   -0.37503    4.53184    1.52190
     129      444        2     0.00000   -1.30444    6.04617    1.35165
     130      444        2     0.00000    6.78773    4.00802   13.57613
     131      444        2     0.00000    5.49713    3.92158   14.79687
     132      444        2     0.00000    5.80417    5.44556   13.94236
     133      444        2     0.00000    3.69843    8.08432   11.15042
     134      444        2     0.00000    5.11079    7.44086   12.00414
     135      444        2     0.00000    3.49229    6.83080   12.38591
     136      444        2     0.00000    0.51556    6.25528   14.56794
     137      444        2     0.00000    2.54962    6.66306   -2.01833
     138      444        2     0.00000    3.27928    8.26305   -2.25203
     139      444        2     0.00000   -1.27639    8.71013    2.14954
     140      444        2     0.00000    0.11767    9.15486    1.13168
     141      444        2     0.00000   -1.44177    9.97997    0.92261
     142      444        2     0.00000    3.31762   12.16747    4.94690
     143      444        2     0.00000    4.00540   10.53142    5.01343
     144      444        2     0.00000    3.51034   11.35741    6.50667
     145      444        2     0.00000    1.53550    7.77987   11.79771
     146      444        2     0.00000    0.26198    8.63012   12.64186
     147      444        2     0.00000    1.93104    8.80413   13.20679
     148      444        2     0.00000    4.87963   10.36108    1.72191
     149      444        2     0.00000    4.10478   11.31021    2.99823
     150      444        2     0.00000    5.63138   10.44907    3.30424
     151      444        2     0.00000   11.61288    1.84869    9.96774
     152      444        2     0.00000   11.95533    0.41342   10.94247
     153      444        2     0.00000   10.27216    0.82913   10.55799
     154      444        2     0.00000    6.85868   11.94700    7.31595
     155      444        2     0.00000    7.36347   12.10522    9.01247
     156      444        2     0.00000   -0.97315    0.02987    7.88674
     157      444        2     0.00000    7.99613    5.25423    3.63278
     158      444        2     0.00000    6.65046    4.36372    4.34991
     159      444        2     0.00000    7.20365    5.87614    5.09387
     160      444        2     0.00000    9.33005    2.59240    9.36808
     161      444        2     0.00000    8.44410    1.99385    7.95216
     162      444        2     0.00000    7.87725    3.44190    8.82189
     163      444        2     0.00000    6.80835    8.83782    7.59116
     164      444        2     0.00000    8.47281    8.31732    7.95251
     165      444        2     0.00000    7.40612    8.83362    9.27362
     166      444        2     0.00000    7.81467    6.20406    0.52416
     167      444        2     0.00000    9.04651    6.10495    1.80382
     168      444        2     0.00000    9.37101    7.04591    0.34211
     169      444        2     0.00000    4.60910    8.43737    5.52642
     170      444        2     0.00000    4.83329    7.37378    6.92553
     171      444        2     0.00000    4.46765    9.09750    7.18025
     172      444        3     0.00000   -2.93542   12.85646    1.03162
     173      444        3     0.00000   -4.79566   11.14890    7.87270
     174      444        3     0.00000   -1.60446    2.61311   14.74211
     175      444        3     0.00000   -1.16092    2.92489    8.44894
     176      444        3     0.00000   -1.05236    4.72165    5.88580
     177      444        3     0.00000    8.07294   10.78204    4.86327
     178      444        3     0.00000   -4.56130    6.93902   16.24649
     179      444        3     0.00000   -3.93670   11.15043   12.55817
     180      444        3     0.00000    9.00646    2.93663   -0.00350
     181      444        3     0.00000    2.38969    2.35802    9.75126
     182      444        3     0.00000    4.96156    1.03229    4.46309
     183      444        3     0.00000    5.32563    3.09947    6.77755
     184      444        3     0.00000    6.77171    1.30558   10.85921
     185      444        3     0.00000    4.12225    4.12569   -0.38204
     186      444        3     0.00000   -0.60585    5.49487    1.99762
     187      444        3     0.00000    5.77350    4.35295   13.82435
     188      444        3     0.00000    4.14015    7.17579   11.56933
     189      444        3     0.00000    2.49064    7.71793   -1.71401
     190      444        3     0.00000   -0.75752    9.54560    1.66122
     191      444        3     0.00000    3.25459   11.19638    5.44953
     192      444        3     0.00000    1.30176    8.71186   12.31651
     193      444        3     0.00000    5.06962   11.03498    2.56691
     194      444        3     0.00000   11.29632    0.81558   10.15845
     195      444        3     0.00000   13.10711   -0.79187    8.16782
     196      444        3     0.00000    7.02581    5.37223    4.13389
     197      444        3     0.00000    8.76436    2.90125    8.47907
     198      444        3     0.00000    7.43380    8.29969    8.31490
     199      444        3     0.00000    8.59014    6.76987    1.05723
     200      444        3     0.00000    4.26282    8.23020    6.54610
     201      444        4     0.00000    0.74522    0.61608    1.49056
     202      444        4     0.00000    0.02417    1.50200    4.30186
     203      444        4     0.00000    1.28578    0.09433    6.16796
     204      444        4     0.00000   -0.74962    2.32513    0.08815
     205      444        4     0.00000    0.90056    2.71300    6.54321
     206      444        4     0.00000   -2.03285    5.88798    9.81639
     207      444        4     0.00000   -5.10872   11.55124    2.51187
     208      444        4     0.00000   -3.96162   10.05881    4.40468
     209      444        4     0.00000   -1.75702    9.44121    5.68125
     210      444        4     0.00000   -2.81963   11.90411    6.00476
     211      444        4     0.00000   -1.09305    6.57917   12.22993
     212      444        4     0.00000   -2.95062    8.47464   11.97474
     213      444        4     0.00000    7.24580    0.70113    0.54762
     214      444        4     0.00000    3.03609    0.06332    8.15040
     215      444        4     0.00000    6.13044    0.45798    7.07955
     216      444        4     0.00000    4.10369    0.25643   10.61754
     217      444        4     0.00000    5.37288   -0.18012   12.90203
     218      444        4     0.00000    6.38545    3.13602    1.16639
     219      444        4     0.00000    0.88425    4.87601    8.00429
     220      444        4     0.00000    0.54529    6.43254   10.11832
     221      444        4     0.00000    2.07680    5.51974    3.03191
     222      444        4     0.00000    4.50390    2.21934   12.38149
     223      444        4     0.00000    2.95178    5.47174    9.56225
     224      444        4     0.00000    4.94909    4.51259   11.04596
     225      444        4     0.00000    1.53784    6.98567    0.84940
     226      444        4     0.00000    0.10051   12.23163    2.10938
     227      444        4     0.00000   -1.64658   11.22463    3.75855
     228      444        4     0.00000    2.56764    9.45026    0.62018
     229      444        4     0.00000    2.57243   12.06504    1.17036
     230      444        4     0.00000    1.91324    7.33687    8.00248
     231      444        4     0.00000    2.30192    6.48661    5.50067
     232      444        4     0.00000   -1.52891    9.13542    8.35284
     233      444        4     0.00000   -0.80343   11.72039    8.47596
     234      444        4     0.00000   -2.01017   10.53143   10.52569
     235      444        4     0.00000    0.94885   10.39763    3.84103
     236      444        4     0.00000    1.52093    8.99268    6.01280
     237      444        4     0.00000    0.53565   11.46074    6.20643
     238      444        4     0.00000   -1.57645    8.22221   14.26390
     239      444        4     0.00000    0.47616    9.30020   15.52392
     240      444        4     0.00000   -0.87459   10.77179   13.79844
     241      444        4     0.00000    0.51904    9.91498    9.86833
     242      444        4     0.00000    0.94763   11.52722   11.95922
     243      444        4     0.00000   12.91658   -0.14754    3.27710
     244      444        4     0.00000    8.16621    0.42237    3.05688
     245      444        4     0.00000    7.49252    1.91553    5.25950
     246      444        4     0.00000   12.47634    1.25418    5.50283
     247      444        4     0.00000    9.95253    1.04732    4.82702
     248      444        4     0.00000   10.69051    0.52278    7.34028
     249      444        4     0.00000   11.28723    0.44452   14.61485
     250      444        4     0.00000    5.51386    5.57614    1.67119
     251      444        4     0.00000    4.41997    6.57563    3.87353
     252      444        4     0.00000   10.74916    3.03562    6.41598
     253      444        4     0.00000   10.84412    4.92200    8.26132
     254      444        4     0.00000    5.40867    6.36114    9.15584
     255      444        4     0.00000   10.24862    5.63703   10.79453
     256      444        4     0.00000    7.98451    5.71474    9.44346
     257      444        4     0.00000    6.51595    7.81017    2.73722
     258      444        4     0.00000    8.94871    8.99899    2.82039
     259      444        4     0.00000    8.15112    9.06250   16.19312
     260      444        4     0.00000    7.32848    9.33775    0.72617
     261      444        4     0.00000    7.17567   12.03170    0.95625
     262      444        4     0.00000    4.29829   11.81640    8.88569
     263      444        4     0.00000    2.98763   10.43633   10.74918
     264      444        4     0.00000    8.24058    7.34207   11.47188
     265      444        4     0.00000    8.98913    7.95439   13.90296
     266      444        4     0.00000    5.67206    8.98407   15.27317
     267      444        4     0.00000    4.35491   11.32146   14.83496
     268      444        4     0.00000    3.09431    9.22952   15.84267
     269      444        4     0.00000    5.62716   10.69876   10.92521
     270      444        4     0.00000    7.52088    9.69104   12.49267
     271      444        4     0.00000   12.50744   -1.43358   13.14706

Bonds

       1        1        1       52
       2        2        1      172
       3        3        1      201
       4        3        1      207
       5        1        2       53
       6        3        2      202
       7        3        2      243
       8        3        2      246
       9        1        3       54
      10        1        3       55
      11        3        3      201
      12        3        3      204
      13        2        4      173
      14        3        4      203
      15        3        4      210
      16        3        4      214
      17        1        5       56
      18        3        5      202
      19        3        5      203
      20        3        5      205
      21        1        6       57
      22        2        6      174
      23        3        6      204
      24        3        6      249
      25        2        7      175
      26        2        7      176
      27        3        7      205
      28        3        7      219
      29        1        8       59
      30        3        8      206
      31        3        8      253
      32        3        8      255
      33        1        9       58
      34        3        9      206
      35        3        9      211
      36        3        9      220
      37        2       10      177
      38        3       10      207
      39        3       10      208
      40        3       10      258
      41        1       11       60
      42        1       11       61
      43        3       11      209
      44        3       11      232
      45        3       12      208
      46        3       12      209
      47        3       12      210
      48        3       12      227
      49        1       13       62
      50        3       13      211
      51        3       13      212
      52        3       13      238
      53        1       14       63
      54        2       14      178
      55        3       14      259
      56        3       14      265
      57        1       15       64
      58        2       15      179
      59        3       15      212
      60        3       15      234
      61        3       16      213
      62        3       16      226
      63        3       16      229
      64        3       16      244
      65        1       17       65
      66        2       17      180
      67        3       17      213
      68        3       17      218
      69        1       18       66
      70        3       18      215
      71        3       18      233
      72        3       18      237
      73        1       19       67
      74        2       19      181
      75        3       19      214
      76        3       19      216
      77        2       20      182
      78        2       20      183
      79        3       20      215
      80        3       20      245
      81        1       21       68
      82        3       21      217
      83        3       21      240
      84        3       21      242
      85        2       22      184
      86        3       22      216
      87        3       22      217
      88        3       22      222
      89        1       23       69
      90        2       23      185
      91        3       23      218
      92        3       23      250
      93        1       24       70
      94        2       24      186
      95        3       24      221
      96        3       24      225
      97        3       25      219
      98        3       25      220
      99        3       25      223
     100        3       25      230
     101        1       26       71
     102        3       26      221
     103        3       26      231
     104        3       26      251
     105        1       27       72
     106        2       27      187
     107        3       27      222
     108        3       27      224
     109        2       28      188
     110        3       28      223
     111        3       28      224
     112        3       28      254
     113        1       29       73
     114        2       29      189
     115        3       29      225
     116        3       29      228
     117        2       30      190
     118        3       30      226
     119        3       30      227
     120        3       30      235
     121        3       31      228
     122        3       31      229
     123        3       31      239
     124        3       31      268
     125        2       32      200
     126        3       32      230
     127        3       32      231
     128        3       32      236
     129        3       33      232
     130        3       33      233
     131        3       33      234
     132        3       33      241
     133        2       34      191
     134        3       34      235
     135        3       34      236
     136        3       34      237
     137        1       35       74
     138        3       35      238
     139        3       35      239
     140        3       35      240
     141        2       36      192
     142        3       36      241
     143        3       36      242
     144        3       36      263
     145        1       37       75
     146        2       37      193
     147        3       37      243
     148        3       37      261
     149        1       38       76
     150        3       38      244
     151        3       38      245
     152        3       38      247
     153        2       39      194
     154        2       39      195
     155        3       39      248
     156        3       39      262
     157        3       40      246
     158        3       40      247
     159        3       40      248
     160        3       40      252
     161        1       41       77
     162        3       41      249
     163        3       41      267
     164        3       41      271
     165        2       42      196
     166        3       42      250
     167        3       42      251
     168        3       42      257
     169        1       43       78
     170        2       43      197
     171        3       43      252
     172        3       43      253
     173        1       44       79
     174        2       44      198
     175        3       44      254
     176        3       44      256
     177        1       45       80
     178        3       45      255
     179        3       45      256
     180        3       45      264
     181        2       46      199
     182        3       46      257
     183        3       46      258
     184        3       46      260
     185        3       47      259
     186        3       47      260
     187        3       47      261
     188        3       47      266
     189        1       48       81
     190        3       48      262
     191        3       48      263
     192        3       48      269
     193        1       49       82
     194        3       49      264
     195        3       49      265
     196        3       49      270
     197        1       50       83
     198        3       50      266
     199        3       50      267
     200        3       50      268
     201        1       51       84
     202        3       51      269
     203        3       51      270
     204        3       51      271
     205        4       85      172
     206        4       86      172
     207        4       87      172
     208        4       88      173
     209        4       89      173
     210        4       90      173
     211        4       91      174
     212        4       92      174
     213        4       93      174
     214        4       94      175
     215        4       95      175
     216        4       96      175
     217        4       97      176
     218        4       98      176
     219        4       99      176
     220        4      100      177
     221        4      101      177
     222        4      102      177
     223        4      103      178
     224        4      104      178
     225        4      105      178
     226        4      106      179
     227        4      107      179
     228        4      108      179
     229        4      109      180
     230        4      110      180
     231        4      111      180
     232        4      112      181