Created on Mon Oct 06 08:30:34 2025 

         366 atoms
         408 bonds
         792 angles
        1080 dihedrals

           4 atom types
           3 bond types
           6 angle types
           2 dihedral types
           0.000000  15.546207 xlo xhi
           0.000000  13.465953 ylo yhi
           0.000000  17.246463 zlo zhi
          -7.583966   0.177804   0.437127 xy xz yz

Masses

    1    28.085500000 # Si3
    2    12.010700000 # C_3
    3    15.999400000 # O_2
    4     1.007940000 # H_

Bond Coeffs

    1      226.661263        1.866919  # Si3 C_3
    2      365.702108        1.692864  # Si3 O_2
    3      331.069389        1.109401  # C_3 H_

Angle Coeffs

    1                      fourier      157.882480        0.343737        0.374972        0.281246 # C_3 Si3 O_2
    2                      fourier      221.735285        0.343737        0.374972        0.281246 # O_2 Si3 O_2
    3                      fourier      114.246973        0.343737        0.374972        0.281246 # C_3 Si3 C_3
    4                      fourier       90.420412        0.343737        0.374972        0.281246 # Si3 C_3 H_
    5                      fourier       75.498766        0.343737        0.374972        0.281246 # H_ C_3 H_
    6              cosine/periodic       88.853997              -1               3 # Si3 O_2 Si3

Dihedral Coeffs

    1        0.089508               1               3 # O_2 Si3 C_3 H_
    2        0.333333               1               3 # C_3 Si3 O_2 Si3

Pair Coeffs

    1        0.402000        3.826410 # Si3 Si3
    2        0.105000        3.430851 # C_3 C_3
    3        0.060000        3.118146 # O_2 O_2
    4        0.044000        2.571134 # H_ H_

Atoms

       1      444        1     0.00000   -5.41517   13.08708    1.67325
       2      444        1     0.00000   14.26979    2.24866    3.78096
       3      444        1     0.00000    1.47993    2.43773   17.02500
       4      444        1     0.00000    2.60053    0.24391    7.73597
       5      444        1     0.00000    1.11591    2.32672    5.69125
       6      444        1     0.00000    3.07073    0.32223   13.45065
       7      444        1     0.00000   14.33041    2.49405   15.28102
       8      444        1     0.00000    1.80894    2.42791   11.63931
       9      444        1     0.00000    0.08191    4.24535    1.61584
      10      444        1     0.00000   -1.20799    6.38811   -0.03858
      11      444        1     0.00000   -0.00214    5.01608    7.14271
      12      444        1     0.00000   -3.47909    6.97107   15.13256
      13      444        1     0.00000   -6.18415   11.72471    4.17856
      14      444        1     0.00000   -4.35260   11.41298   17.01538
      15      444        1     0.00000   -2.18698    9.72973    7.66869
      16      444        1     0.00000   -3.44400   12.04367    5.93577
      17      444        1     0.00000   -2.06863    9.03339   13.40040
      18      444        1     0.00000    9.04498   11.84701   14.92799
      19      444        1     0.00000   -3.17429   11.59586   11.78509
      20      444        1     0.00000    7.79633    0.29557    1.97713
      21      444        1     0.00000    6.80662    2.75361   17.02783
      22      444        1     0.00000    0.58895   13.55767    7.82375
      23      444        1     0.00000    3.90914    2.04236    9.76255
      24      444        1     0.00000    6.97447    2.41811    5.99530
      25      444        1     0.00000    8.16885    0.52630   13.34221
      26      444        1     0.00000    4.21545    2.63472   15.35158
      27      444        1     0.00000    6.43584    2.50937   11.54885
      28      444        1     0.00000    5.52841    4.76047    1.21620
      29      444        1     0.00000    1.56171    6.79800    3.00501
      30      444        1     0.00000    4.43131    7.65025   17.20311
      31      444        1     0.00000    5.27645    3.98148    7.87793
      32      444        1     0.00000    5.47429    4.90638   13.48791
      33      444        1     0.00000    1.62482    7.60657   15.67157
      34      444        1     0.00000    3.77375    7.17005   11.99402
      35      444        1     0.00000    3.11982    9.21840    1.87260
      36      444        1     0.00000   -0.99065   11.75751    4.00904
      37      444        1     0.00000    1.50704   11.47674    0.32159
      38      444        1     0.00000    2.92113    9.61037    7.58048
      39      444        1     0.00000   -0.99481   11.67566    9.78908
      40      444        1     0.00000    1.81488   11.70407    5.66203
      41      444        1     0.00000    2.71060    9.53446   13.67708
      42      444        1     0.00000    1.63444   11.62001   11.49090
      43      444        1     0.00000   12.93680    0.11056    1.77632
      44      444        1     0.00000    9.18132    2.37417    3.85236
      45      444        1     0.00000   11.64647    2.12165   -0.03318
      46      444        1     0.00000    5.48979   13.57646    7.45265
      47      444        1     0.00000    8.91776    2.33788    9.76578
      48      444        1     0.00000   11.81446    2.10513    5.60781
      49      444        1     0.00000   12.63248    0.60729   13.55208
      50      444        1     0.00000    9.42431    2.63919   15.17525
      51      444        1     0.00000   11.24217    2.73683   11.69148
      52      444        1     0.00000   10.42367    4.39111    1.75255
      53      444        1     0.00000    6.96379    6.47671    3.38357
      54      444        1     0.00000    9.44339    6.97990   17.01931
      55      444        1     0.00000   10.62727    4.14523    7.76080
      56      444        1     0.00000   10.44968    5.09114   13.53897
      57      444        1     0.00000    6.87554    7.23380   15.20283
      58      444        1     0.00000    9.26509    7.30000   11.81302
      59      444        1     0.00000    4.20629   11.36903    3.78858
      60      444        1     0.00000    6.58816   12.12769   16.91243
      61      444        1     0.00000    7.90179    8.86418    7.39759
      62      444        1     0.00000    4.07732   11.83912    9.45001
      63      444        1     0.00000    6.71022   11.26877    5.77900
      64      444        1     0.00000    7.67236    9.61987   13.23192
      65      444        1     0.00000    3.79152   11.95383   15.35841
      66      444        1     0.00000    6.24522   11.76918   11.65964
      67      444        2     0.00000    3.86566    0.19071    2.08932
      68      444        2     0.00000   -6.08956   12.26871    7.96975
      69      444        2     0.00000    2.26610    2.69547    4.31639
      70      444        2     0.00000   -1.24435    3.92635   14.13191
      71      444        2     0.00000    0.05403    2.19110   11.17240
      72      444        2     0.00000    1.92799    3.64045   12.99161
      73      444        2     0.00000   -1.83219    7.29440    1.43190
      74      444        2     0.00000   -0.26598    4.80462    8.97432
      75      444        2     0.00000   -1.58803    5.37473    6.21751
      76      444        2     0.00000    1.30178    6.32814    6.97559
      77      444        2     0.00000    9.46123   10.00026    3.54860
      78      444        2     0.00000   -3.61569    9.47163    0.29138
      79      444        2     0.00000   -3.19915   12.71734   16.42546
      80      444        2     0.00000   -2.90612    8.11671    8.15954
      81      444        2     0.00000   -0.78512    9.30367    6.58066
      82      444        2     0.00000   -1.11070    7.80965   12.38277
      83      444        2     0.00000   -1.19963    9.91796   14.74397
      84      444        2     0.00000   -4.67307   11.23290   10.81231
      85      444        2     0.00000    5.50517    1.94870    5.02450
      86      444        2     0.00000   -0.37468   13.11932   14.62015
      87      444        2     0.00000    4.58026    3.50959    2.16005
      88      444        2     0.00000    3.16320    6.30233    3.75930
      89      444        2     0.00000    0.30355    7.36890    4.20798
      90      444        2     0.00000    3.94857    4.61021    6.77198
      91      444        2     0.00000    5.46297    5.11205    9.31476
      92      444        2     0.00000    1.69547    5.95729   14.90289
      93      444        2     0.00000    2.10557    6.67957   11.34507
      94      444        2     0.00000    4.87894    7.97369   10.74867
      95      444        2     0.00000   -1.57542   10.12792    3.38646
      96      444        2     0.00000   -0.09770   10.59840    0.21815
      97      444        2     0.00000    1.74704    9.08604    8.91394
      98      444        2     0.00000    4.00911    8.29316    6.90010
      99      444        2     0.00000   14.30057    1.39095    7.93132
     100      444        2     0.00000   12.51661    2.63544   10.38573
     101      444        2     0.00000   11.61593    5.26784    2.87443
     102      444        2     0.00000    8.79357    6.53562    3.68659
     103      444        2     0.00000    6.33369    8.20110    3.49801
     104      444        2     0.00000    6.14475    5.46245    4.69299
     105      444        2     0.00000    9.03450    8.09643    0.69591
     106      444        2     0.00000    9.91477    5.25134    6.48032
     107      444        2     0.00000   11.63334    5.18040    8.92501
     108      444        2     0.00000   10.86636    7.85598   11.10626
     109      444        2     0.00000    8.25639    6.27395   10.66678
     110      444        2     0.00000    6.82942   10.32437    0.78682
     111      444        2     0.00000    7.25326    7.14116    7.21447
     112      444        2     0.00000    9.71260    8.80507    7.00282
     113      444        2     0.00000    7.59942    9.60341    9.06621
     114      444        2     0.00000    7.85010   12.36576   11.03030
     115      444        3     0.00000    1.43748    0.60312    0.58841
     116      444        3     0.00000   -0.18966    1.70448    4.87392
     117      444        3     0.00000    1.78689    1.34446    6.82370
     118      444        3     0.00000    0.28568    2.31307   15.93070
     119      444        3     0.00000    2.44177    0.96566   12.09919
     120      444        3     0.00000   -0.71731    3.50983    2.86071
     121      444        3     0.00000    1.05153    3.16778    0.88669
     122      444        3     0.00000   -0.90819    4.83704    0.45025
     123      444        3     0.00000    0.63399    3.63712    6.50944
     124      444        3     0.00000   -2.09594    6.75218   15.96957
     125      444        3     0.00000   -6.29148   12.91365    3.04904
     126      444        3     0.00000   -5.38499   11.57522    1.04391
     127      444        3     0.00000   -4.79928   11.93197    5.04473
     128      444        3     0.00000   -3.24219   10.69954    6.84009
     129      444        3     0.00000   -3.60732   13.31965    6.92508
     130      444        3     0.00000   -3.34793    8.25720   14.14070
     131      444        3     0.00000   -5.46791   11.02459   15.87168
     132      444        3     0.00000   -5.75044   13.17947   14.33809
     133      444        3     0.00000   -2.60515   10.18710   12.36189
     134      444        3     0.00000   -3.47465   12.60064   13.05521
     135      444        3     0.00000    6.95058    1.37156    1.08203
     136      444        3     0.00000    3.11105    0.71223    9.23167
     137      444        3     0.00000    2.71408    3.00101   10.35848
     138      444        3     0.00000    7.48313    1.09012    6.77482
     139      444        3     0.00000    3.90018    1.47234   14.25939
     140      444        3     0.00000    5.45078    2.16509   16.31569
     141      444        3     0.00000    2.87927    2.84203   16.26657
     142      444        3     0.00000    5.02067    1.94245   10.96516
     143      444        3     0.00000    7.08559    1.34257   12.43956
     144      444        3     0.00000    6.38408    3.88552    0.11522
     145      444        3     0.00000    0.96945    5.50181    2.15838
     146      444        3     0.00000    4.34017    5.70481    0.56487
     147      444        3     0.00000    4.66602    2.55738    8.43656
     148      444        3     0.00000    6.68691    3.59871    7.10284
     149      444        3     0.00000    4.66895    4.02005   14.61129
     150      444        3     0.00000    6.24580    3.87103   12.46761
     151      444        3     0.00000    2.98995    7.86748   16.51318
     152      444        3     0.00000    0.31138    7.61031   16.66100
     153      444        3     0.00000    4.41904    5.78225   12.62003
     154      444        3     0.00000    1.89515    8.15973    2.10779
     155      444        3     0.00000    4.32142    8.40457    1.09322
     156      444        3     0.00000   -0.83767   12.75071    2.71406
     157      444        3     0.00000   -2.14489   12.33363    5.00658
     158      444        3     0.00000    2.57639   10.50239    1.06359
     159      444        3     0.00000    1.26804   12.91289    1.08249
     160      444        3     0.00000   -1.70420   10.38900    9.09961
     161      444        3     0.00000   -0.53943   12.62760    8.54498
     162      444        3     0.00000   -2.05748   12.34753   10.82364
     163      444        3     0.00000    0.43190   11.69323    4.80404
     164      444        3     0.00000    2.12590   10.22530    6.26369
     165      444        3     0.00000    1.67506   12.69664    6.95602
     166      444        3     0.00000    1.52946    8.88217   14.61907
     167      444        3     0.00000    3.63558    8.28526   13.20767
     168      444        3     0.00000    0.27695   11.20618   10.69226
     169      444        3     0.00000    2.05108   10.31372   12.39208
     170      444        3     0.00000    1.40958   12.91687   12.42501
     171      444        3     0.00000   13.80353    1.04049    2.79736
     172      444        3     0.00000    8.58476    1.03399    3.17702
     173      444        3     0.00000    8.14473    2.96245    4.96577
     174      444        3     0.00000   13.26755    2.71095   16.49919
     175      444        3     0.00000   11.71306    0.94477    1.09450
     176      444        3     0.00000    8.90845    0.89222    9.02452
     177      444        3     0.00000    7.44108    2.82326   10.28629
     178      444        3     0.00000   12.99375    2.76838    4.67615
     179      444        3     0.00000   10.53487    1.97087    4.63478
     180      444        3     0.00000   12.22260    0.62078    6.13969
     181      444        3     0.00000   13.89817    1.13457   14.44402
     182      444        3     0.00000    9.24771    1.58125   13.96675
     183      444        3     0.00000   10.66725    2.21063   16.12725
     184      444        3     0.00000    8.04844    2.65451   16.01819
     185      444        3     0.00000    9.84158    2.14595   11.09299
     186      444        3     0.00000   11.84520    1.89441   12.95096
     187      444        3     0.00000    9.43019    3.45160    2.66787
     188      444        3     0.00000   11.32763    3.50469    0.72949
     189      444        3     0.00000    6.59869    5.75792    1.92421
     190      444        3     0.00000   10.80723    7.15923   16.12744
     191      444        3     0.00000    9.45692    5.28966    0.79886
     192      444        3     0.00000    9.46984    3.42715    8.69548
     193      444        3     0.00000   11.52203    3.00944    6.93641
     194      444        3     0.00000    9.64801    4.12951   14.56754
     195      444        3     0.00000   10.91953    4.26473   12.20982
     196      444        3     0.00000   11.81728    5.62621   14.24717
     197      444        3     0.00000    6.45465    5.97822   14.23325
     198      444        3     0.00000    8.15400    6.71562   16.05171
     199      444        3     0.00000    5.66522    7.75558   16.16221
     200      444        3     0.00000    9.51308    6.36768   13.16278
     201      444        3     0.00000    3.70359    9.89570    3.25144
     202      444        3     0.00000    4.66596   12.32802    2.56169
     203      444        3     0.00000    3.01105   12.09829    4.63024
     204      444        3     0.00000    7.70075   12.31310   15.71732
     205      444        3     0.00000    6.33880   13.06048    0.58115
     206      444        3     0.00000    3.87932   10.75513    8.26409
     207      444        3     0.00000    4.49701   13.24603    8.73044
     208      444        3     0.00000    2.74935   11.99238   10.37099
     209      444        3     0.00000    8.02211   11.94622    5.09016
     210      444        3     0.00000    5.49482   11.11308    4.72551
     211      444        3     0.00000    7.07757    9.78002    6.28344
     212      444        3     0.00000    6.24909   12.18951    7.03406
     213      444        3     0.00000    7.22346    8.61022   14.40944
     214      444        3     0.00000    8.43585    8.69251   12.14148
     215      444        3     0.00000    8.68306   10.79785   13.73655
     216      444        3     0.00000    3.63357   10.57548   14.50971
     217      444        3     0.00000    5.10522   11.82235   16.29077
     218      444        3     0.00000    3.96928   13.24720   14.41458
     219      444        3     0.00000    2.39696   12.24650   16.14205
     220      444        3     0.00000    5.26069   11.32122   10.43573
     221      444        3     0.00000    6.38823   10.41924   12.60052
     222      444        3     0.00000    5.56879   13.06223   12.39848
     223      444        4     0.00000    3.88519    0.82094    2.98266
     224      444        4     0.00000    4.35255    0.73028    1.27224
     225      444        4     0.00000   -3.10337   12.77721    2.30532
     226      444        4     0.00000   -5.56149   11.42579    8.42012
     227      444        4     0.00000   -6.50116   11.96722    7.00669
     228      444        4     0.00000   -6.92602   12.52797    8.62178
     229      444        4     0.00000    2.25060    1.84746    3.62379
     230      444        4     0.00000    3.29192    2.85364    4.63388
     231      444        4     0.00000    1.91528    3.57693    3.76709
     232      444        4     0.00000   13.32177    3.99557   13.65366
     233      444        4     0.00000   -0.48704    3.82665   13.35230
     234      444        4     0.00000   -1.08664    4.86150   14.67912
     235      444        4     0.00000   -0.05371    1.70063   10.20349
     236      444        4     0.00000   -0.42695    3.17200   11.11716
     237      444        4     0.00000   -0.46276    1.59723   11.93659
     238      444        4     0.00000    2.94490    4.00773   13.11295
     239      444        4     0.00000    1.56258    3.25427   13.94854
     240      444        4     0.00000    1.31195    4.49995   12.71594
     241      444        4     0.00000   -2.92252    7.33331    1.44774
     242      444        4     0.00000   -1.44607    8.31457    1.45703
     243      444        4     0.00000   -1.50768    6.77449    2.33743
     244      444        4     0.00000   -1.01862    4.04423    9.19838
     245      444        4     0.00000   -0.56543    5.74862    9.45563
     246      444        4     0.00000    0.68652    4.48627    9.42204
     247      444        4     0.00000   -2.37276    4.68963    6.55554
     248      444        4     0.00000   -1.47742    5.21084    5.13864
     249      444        4     0.00000   -1.93280    6.40279    6.37816
     250      444        4     0.00000    0.86129    7.32521    6.93320
     251      444        4     0.00000    1.89270    6.18686    6.06832
     252      444        4     0.00000    1.98488    6.28053    7.83210
     253      444        4     0.00000   -5.11615    9.83163    3.06361
     254      444        4     0.00000    8.67025    9.75580    2.83716
     255      444        4     0.00000    9.37829    9.31563    4.39928
     256      444        4     0.00000   -3.76966    9.02099   16.99441
     257      444        4     0.00000   -3.76164    9.29129    1.36214
     258      444        4     0.00000   -2.54404    9.60783    0.11652
     259      444        4     0.00000   -2.81450   12.51000   15.42349
     260      444        4     0.00000   -2.34568   12.82460   17.10546
     261      444        4     0.00000   -3.71071   13.68157   16.39304
     262      444        4     0.00000   -3.63135    8.20338    8.96647
     263      444        4     0.00000   -2.07137    7.51432    8.54930
     264      444        4     0.00000   -3.35429    7.57903    7.31871
     265      444        4     0.00000   -1.13486    8.54332    5.87356
     266      444        4     0.00000   -0.00300    8.85056    7.19248
     267      444        4     0.00000   -0.33311   10.11529    6.01855
     268      444        4     0.00000   -0.75743    6.96173   12.98567
     269      444        4     0.00000   -0.24108    8.30671   11.93350
     270      444        4     0.00000   -1.73517    7.41293   11.56988
     271      444        4     0.00000   -1.90436   10.65593   15.14448
     272      444        4     0.00000   -0.30440   10.43550   14.39761
     273      444        4     0.00000   -0.90884    9.24196   15.54829
     274      444        4     0.00000   -5.40402   10.68411   11.41626
     275      444        4     0.00000   -4.38734   10.61316    9.95342
     276      444        4     0.00000   -5.10850   12.16704   10.45293
     277      444        4     0.00000    4.73093    1.53550    5.67792
     278      444        4     0.00000    5.76846    1.18339    4.28756
     279      444        4     0.00000    5.12578    2.81546    4.48784
     280      444        4     0.00000   -0.82083   13.82411   15.32879
     281      444        4     0.00000    0.25940   12.41084   15.15454
     282      444        4     0.00000   -1.19071   12.58152   14.12634
     283      444        4     0.00000    5.20575    2.68311    2.50308
     284      444        4     0.00000    3.83983    3.10766    1.45296
     285      444        4     0.00000    4.01428    3.92124    2.99411
     286      444        4     0.00000    3.89602    6.12543    2.96618
     287      444        4     0.00000    3.09116    5.40184    4.37501
     288      444        4     0.00000    3.54608    7.11887    4.38240
     289      444        4     0.00000   -0.01487    6.57789    4.88525
     290      444        4     0.00000   -0.58473    7.75898    3.70854
     291      444        4     0.00000    0.74589    8.18230    4.79619
     292      444        4     0.00000    2.99554    4.34179    7.24277
     293      444        4     0.00000    3.97501    4.14916    5.78538
     294      444        4     0.00000    3.98142    5.69319    6.64541
     295      444        4     0.00000    5.65619    6.14071    9.01159
     296      444        4     0.00000    6.26439    4.81015    9.98836
     297      444        4     0.00000    4.51210    5.09121    9.86889
     298      444        4     0.00000    1.74318    5.20310   15.70032
     299      444        4     0.00000    2.58263    5.82735   14.28026
     300      444        4     0.00000    0.80283    5.75328   14.30451
     301      444        4     0.00000    2.20389    5.85144   10.62879
     302      444        4     0.00000    1.59509    7.50870   10.84842
     303      444        4     0.00000    1.45966    6.34496   12.16303
     304      444        4     0.00000    4.61922    7.69744    9.72326
     305      444        4     0.00000    5.92880    7.70998   10.92358
     306      444        4     0.00000    4.79151    9.06201   10.84697
     307      444        4     0.00000   -0.75369    9.54386    2.96263
     308      444        4     0.00000   -2.32121   10.30008    2.59956
     309      444        4     0.00000   -2.04992    9.53524    4.17697
     310      444        4     0.00000   -0.54445   10.60648    1.21653
     311      444        4     0.00000    0.04684    9.55794   -0.08953
     312      444        4     0.00000   -0.62178   11.51872   16.78124
     313      444        4     0.00000    1.33285    8.08339    8.78949
     314      444        4     0.00000    0.91761    9.78912    9.01928
     315      444        4     0.00000    2.29987    9.10607    9.86149
     316      444        4     0.00000    4.36834    7.63138    7.69608
     317      444        4     0.00000    4.86985    8.73673    6.38514
     318      444        4     0.00000    3.44062    7.69048    6.18715
     319      444        4     0.00000   14.29086    2.22136    7.21889
     320      444        4     0.00000   -0.23383    0.97707    7.93015
     321      444        4     0.00000   14.08724    1.80407    8.91466
     322      444        4     0.00000   12.10765    2.64683    9.37368
     323      444        4     0.00000   13.00948    1.66755   10.53079
     324      444        4     0.00000   13.25998    3.42936   10.48378
     325      444        4     0.00000   11.46516    6.34937    2.93992
     326      444        4     0.00000   -2.90884    5.06539    2.53608
     327      444        4     0.00000   11.53013    4.86094    3.88896
     328      444        4     0.00000    9.34480    7.06583    2.90955
     329      444        4     0.00000    9.20987    5.53593    3.81521
     330      444        4     0.00000    8.95527    7.07438    4.62899
     331      444        4     0.00000    6.64519    8.84679    2.67558
     332      444        4     0.00000    6.72307    8.62599    4.43132
     333      444        4     0.00000    5.24556    8.24129    3.55705
     334      444        4     0.00000    5.58335    4.64193    4.24234
     335      444        4     0.00000    5.44637    6.07567    5.26493
     336      444        4     0.00000    6.86569    5.03653    5.38873
     337      444        4     0.00000    8.98951    8.93107   -0.01057
     338      444        4     0.00000    9.86059    8.28250    1.38763
     339      444        4     0.00000    8.10483    8.06695    1.26794
     340      444        4     0.00000   10.73216    5.57892    5.82072
     341      444        4     0.00000    9.48967    6.14609    6.93792
     342      444        4     0.00000    9.14506    4.76700    5.87506
     343      444        4     0.00000   11.23949    6.19709    8.82760
     344      444        4     0.00000   12.70092    5.22191    8.69575
     345      444        4     0.00000   11.50833    4.88960    9.97070
     346      444        4     0.00000   10.63621    8.36634   10.16250
     347      444        4     0.00000   11.55517    7.02758   10.90803
     348      444        4     0.00000   -4.19390    8.58634   11.75712
     349      444        4     0.00000    7.46188    5.77990   11.23792
     350      444        4     0.00000    8.85763    5.48571   10.19442
     351      444        4     0.00000    7.79483    6.87813    9.88067
     352      444        4     0.00000    7.85043   10.44834    1.15910
     353      444        4     0.00000    6.71462    9.35133    0.30359
     354      444        4     0.00000    6.13205   10.36884    1.62912
     355      444        4     0.00000    7.67380    6.43886    7.94160
     356      444        4     0.00000    7.51681    6.76847    6.22271
     357      444        4     0.00000    6.16561    7.11102    7.29210
     358      444        4     0.00000   -5.33918    9.77882    6.96160
     359      444        4     0.00000    9.93883    8.26730    6.07274
     360      444        4     0.00000   10.18317    8.23577    7.81410
     361      444        4     0.00000    7.42820   10.67638    8.93826
     362      444        4     0.00000    8.44221    9.46573    9.75353
     363      444        4     0.00000    6.70287    9.19320    9.54109
     364      444        4     0.00000    7.65062   13.11472   10.25494
     365      444        4     0.00000    8.43362   11.55888   10.59173
     366      444        4     0.00000    8.44618   12.84643   11.81246

Bonds

       1        1        1       67
       2        2        1      115
       3        2        1      125
       4        2        1      126
       5        2        2      116
       6        2        2      120
       7        2        2      171
       8        2        2      178
       9        2        3      115
      10        2        3      118
      11        2        3      121
      12        2        3      141
      13        1        4       68
      14        2        4      117
      15        2        4      129
      16        2        4      136
      17        1        5       69
      18        2        5      116
      19        2        5      117
      20        2        5      123
      21        2        6      119
      22        2        6      132
      23        2        6      134
      24        2        6      139
      25        1        7       70
      26        2        7      118
      27        2        7      174
      28        2        7      181
      29        1        8       71
      30        1        8       72
      31        2        8      119
      32        2        8      137
      33        2        9      120
      34        2        9      121
      35        2        9      122
      36        2        9      145
      37        1       10       73
      38        2       10      122
      39        2       10      124
      40        2       10      152
      41        1       11       74
      42        1       11       75
      43        1       11       76
      44        2       11      123
      45        2       12      124
      46        2       12      130
      47        2       12      190
      48        2       12      196
      49        1       13       77
      50        2       13      125
      51        2       13      127
      52        2       13      209
      53        1       14       78