Created on Mon Oct 06 08:32:48 2025 

         310 atoms
         315 bonds
         584 angles
         669 dihedrals

           8 atom types
           4 bond types
           9 angle types
           2 dihedral types
           0.000000  15.411447 xlo xhi
           0.000000  12.402704 ylo yhi
           0.000000  17.503439 zlo zhi
          -7.202679  -1.826073   0.338403 xy xz yz

Masses

    1    28.085500000 # Si3
    2     1.007940000 # H_
    3    12.010700000 # C_3
    4    15.999400000 # O_2
    5    28.085500000 # Si3
    6     1.007940000 # H_
    7    12.010700000 # C_3
    8    15.999400000 # O_2

Bond Coeffs

    1      172.712984        1.470529  # Si3 H_
    2      226.661263        1.866919  # Si3 C_3
    3      365.702108        1.692864  # Si3 O_2
    4      331.069389        1.109401  # H_ C_3

Angle Coeffs

    1                      fourier       58.020602        0.343737        0.374972        0.281246 # H_ Si3 C_3
    2                      fourier       83.380072        0.343737        0.374972        0.281246 # H_ Si3 O_2
    3                      fourier      157.882480        0.343737        0.374972        0.281246 # C_3 Si3 O_2
    4                      fourier      221.735285        0.343737        0.374972        0.281246 # O_2 Si3 O_2
    5                      fourier       32.417871        0.343737        0.374972        0.281246 # H_ Si3 H_
    6                      fourier      114.246973        0.343737        0.374972        0.281246 # C_3 Si3 C_3
    7                      fourier       90.420412        0.343737        0.374972        0.281246 # Si3 C_3 H_
    8                      fourier       75.498766        0.343737        0.374972        0.281246 # H_ C_3 H_
    9              cosine/periodic       88.853997              -1               3 # Si3 O_2 Si3

Dihedral Coeffs

    1        0.089508               1               3 # H_ Si3 C_3 H_
    2        0.333333               1               3 # H_ Si3 O_2 Si3

Pair Coeffs

    1        0.402000        3.826410 # Si3 Si3
    2        0.044000        2.571134 # H_ H_
    3        0.105000        3.430851 # C_3 C_3
    4        0.060000        3.118146 # O_2 O_2
    5        0.402000        3.826410 # Si3 Si3
    6        0.044000        2.571134 # H_ H_
    7        0.105000        3.430851 # C_3 C_3
    8        0.060000        3.118146 # O_2 O_2

Atoms

       1      444        1     0.00000    3.05314    0.65122    0.65841
       2      444        1     0.00000   -1.41784    2.21359    3.55239
       3      444        1     0.00000   -4.93403   12.29017    8.85795
       4      444        1     0.00000   11.04827    1.69543   17.11054
       5      444        1     0.00000    0.25128    3.07597   12.09680
       6      444        1     0.00000   11.12725    6.07690    3.91799
       7      444        1     0.00000   -2.91266    4.88185   15.63332
       8      444        1     0.00000   -0.85731    4.68112    8.21471
       9      444        1     0.00000   -4.07226    6.68402   10.76883
      10      444        1     0.00000   -2.29542    6.53086    6.17317
      11      444        1     0.00000    9.57696    6.13954   15.68299
      12      444        1     0.00000   -2.82173    8.04497    2.03467
      13      444        1     0.00000   -6.30610   10.49331    3.55554
      14      444        1     0.00000   -5.87172   10.36463   17.27910
      15      444        1     0.00000   -3.74703    8.37543    8.16101
      16      444        1     0.00000   -6.21511   10.61252   11.08969
      17      444        1     0.00000   -5.20761   12.12522   13.60602
      18      444        1     0.00000   -0.47603   11.84607    1.43707
      19      444        1     0.00000    3.63439    2.11275    3.26775
      20      444        1     0.00000    5.01674    2.53571   17.40068
      21        1        5     0.00000    0.67799   12.05228    8.88580
      22      444        1     0.00000    2.70313    2.54650   10.24583
      23      444        1     0.00000    7.03757    0.32569   13.43322
      24      444        1     0.00000    5.28589    2.21626   11.74148
      25      444        1     0.00000    5.20216    4.31675    1.61422
      26      444        1     0.00000    0.56130    6.96031    4.99336
      27      444        1     0.00000    2.35598    6.10548   16.70351
      28      444        1     0.00000    4.05367    4.79785    8.31646
      29      444        1     0.00000    4.10497    4.63408   13.26372
      30      444        1     0.00000    2.63406    7.27229   12.32715
      31      444        1     0.00000    1.56270    8.01261    2.29615
      32      444        1     0.00000   -1.15367    9.91864   17.28482
      33        1        5     0.00000    1.41758   10.92447    6.06529
      34      444        1     0.00000   10.66119    0.75634    1.52682
      35      444        1     0.00000   13.03073    0.35571    7.61965
      36      444        1     0.00000   11.74097    2.22449    5.53469
      37      444        1     0.00000   12.26622    0.25216   12.83538
      38      444        1     0.00000    9.88724    3.63354    2.38820
      39      444        1     0.00000    6.14140    6.30911    3.75347
      40      444        1     0.00000    9.17213    5.75627    0.28854
      41      444        1     0.00000    9.63270    3.65169    7.15976
      42      444        1     0.00000    8.56157    6.25571    5.80032
      43      444        1     0.00000    8.78003    3.69033   13.91457
      44      444        1     0.00000    5.16935    6.42590   15.48452
      45      444        1     0.00000    8.26458    6.47121   10.89017
      46      444        1     0.00000    7.88155    8.11653    1.92613
      47      444        1     0.00000    5.06950   10.22122   16.90129
      48      444        1     0.00000    7.29486    8.44663    7.54717
      49      444        1     0.00000    4.17969   10.43299    8.88012
      50      444        1     0.00000    6.74554   10.67362    5.56984
      51      444        1     0.00000    6.07590   10.23913   11.21072
      52      444        2     0.00000    4.44225    0.87088    0.20486
      53      444        2     0.00000   -0.31922    1.59526    4.34182
      54      444        2     0.00000   13.28933    1.14157    2.79677
      55      444        2     0.00000   -3.55453   11.95518    9.30038
      56      444        2     0.00000   11.07783    1.13048   15.73802
      57      444        2     0.00000   14.25091    1.38166    0.16341
      58      444        2     0.00000   -0.27167    1.70051   11.91140
      59      444        2     0.00000   -0.74153    4.06779   11.59927
      60      444        2     0.00000    0.50421    3.34104   13.54376
      61      444        2     0.00000   -1.94562    5.26147   16.70406
      62      444        2     0.00000   -1.56770    3.85453    9.22573
      63      444        2     0.00000   -3.47708    7.76459   11.61145
      64      444        2     0.00000   -2.96356    3.38494   15.57706
      65      444        2     0.00000   -2.00893    8.95005    2.88815
      66      444        2     0.00000   -7.05849    9.81399   16.57639
      67      444        2     0.00000   -4.72905   10.57529   16.35257
      68      444        2     0.00000   -4.91364    9.22909    7.85728
      69      444        2     0.00000   -6.10194   11.77872   14.74904
      70      444        2     0.00000    2.22005    1.19464   13.63387
      71      444        2     0.00000   -1.82716   11.53634    1.96586
      72      444        2     0.00000    0.56613   11.55052    2.45871
      73      444        2     0.00000    6.42922    2.86574   17.12452
      74      444        2     0.00000   -0.34479   11.27868   13.13071
      75      444        2     0.00000    8.20289    0.84388   12.65812
      76      444        2     0.00000    6.34423    2.25223   10.71715
      77      444        2     0.00000    0.64984    5.55010    4.52002
      78      444        2     0.00000    1.63838    7.26024    5.97205
      79      444        2     0.00000    2.13099    4.80704   16.00143
      80      444        2     0.00000    4.65845    5.87248    9.14929
      81      444        2     0.00000    2.97695    5.40333    7.47581
      82      444        2     0.00000    2.96213    3.83354   13.74074
      83      444        2     0.00000    3.15669    8.25689   13.32570
      84      444        2     0.00000    1.92941    6.61067    1.95046
      85      444        2     0.00000    0.25903   10.33713   17.07497
      86        1        6     0.00000    2.00690   12.09791    5.34702
      87        1        6     0.00000    2.29315    9.74378    5.80675
      88      444        2     0.00000    9.39905    0.50830    0.78594
      89      444        2     0.00000    3.52661   12.30375    2.73467
      90      444        2     0.00000   11.09403    1.11907    4.79477
      91      444        2     0.00000   10.47467    3.06468   17.08330
      92      444        2     0.00000    8.63995    2.54442    7.22395
      93      444        2     0.00000   -3.20603    5.47771   10.81677
      94      444        2     0.00000    9.50277    2.61714   14.65138
      95      444        2     0.00000    9.49317    3.95444   12.63634
      96      444        2     0.00000    5.68224    7.58403   14.73572
      97      444        2     0.00000    7.38866    3.25825   13.63455
      98      444        2     0.00000    8.23009    7.55458    9.87297
      99      444        2     0.00000    5.53731   11.60382   17.20066
     100      444        2     0.00000    5.84187    9.72928   15.72194
     101      444        2     0.00000    8.04443    9.31476    8.47362
     102      444        2     0.00000    6.34737    7.50059    8.19059
     103      444        2     0.00000   -5.27136    9.49682   11.32175
     104      444        2     0.00000    3.72818    9.33948    7.99426
     105      444        2     0.00000    3.17134   10.84275    9.88627
     106      444        2     0.00000    5.49082    9.31826   12.20664
     107      444        2     0.00000   -1.60322    3.88584    1.75838
     108      444        2     0.00000   -0.00537    3.10043    1.72652
     109      444        2     0.00000   -0.35829    4.36018    2.93585
     110      444        2     0.00000    1.06368    0.13446    6.72127
     111      444        2     0.00000   -4.98228   11.19732    6.65726
     112      444        2     0.00000    2.81340    0.47516    6.56571
     113      444        2     0.00000   -2.40598    6.63259   13.94089
     114      444        2     0.00000   -3.04766    5.15296   13.17986
     115      444        2     0.00000   -1.36650    5.20584   13.73309
     116      444        2     0.00000    0.77989    4.25505    6.40463
     117      444        2     0.00000   -0.40463    2.93804    6.51720
     118      444        2     0.00000    0.93501    3.04180    7.68727
     119      444        2     0.00000    0.63930    6.66436    8.37114
     120      444        2     0.00000    0.93870    5.50432    9.68740
     121      444        2     0.00000   -0.46887    6.58911    9.76718
     122      444        2     0.00000    8.87657    8.24756   14.61695
     123      444        2     0.00000   -5.19269    7.49337   13.72229
     124      444        2     0.00000   -4.87984    8.36157   15.24949
     125      444        2     0.00000   -2.49125    5.88464    0.93237
     126      444        2     0.00000   -1.10080    6.30564    1.96084
     127      444        2     0.00000   -1.26971    7.05088    0.36507
     128      444        2     0.00000   -3.88502   10.56597    3.09524
     129      444        2     0.00000   -4.22898    9.75602    4.64711
     130      444        2     0.00000   -4.29234   11.53548    4.51702
     131      444        2     0.00000    7.34650   11.74864    2.37403
     132      444        2     0.00000   -6.59371   11.62349    1.39760
     133      444        2     0.00000    0.53876    0.39861    2.72462
     134      444        2     0.00000   -0.98932    1.86176   17.46138
     135      444        2     0.00000    0.16844    1.85553   16.11325
     136      444        2     0.00000    0.27388    3.11923   17.36691
     137      444        2     0.00000   -1.97336   10.10345    8.25023
     138      444        2     0.00000   -1.47128    8.58666    9.02346
     139      444        2     0.00000   -2.55738    9.70610    9.88195
     140      444        2     0.00000   -3.83620   10.07237   13.63434
     141      444        2     0.00000   -3.05041   11.36942   14.56368
     142      444        2     0.00000   -3.00219   11.40515   12.78602
     143      444        2     0.00000    5.86922    1.04177    3.54410
     144      444        2     0.00000    4.76564    0.60431    4.86505
     145      444        2     0.00000    5.54219    2.20640    4.83543
     146      444        2     0.00000    1.88204    2.03008    5.04043
     147      444        2     0.00000    1.58117    3.33634    3.87524
     148      444        2     0.00000    2.84345    3.52274    5.10593
     149      444        2     0.00000    4.02768    0.90665   15.82631
     150      444        2     0.00000    4.75027    2.28158   14.97424
     151      444        2     0.00000    3.15741    2.45665   15.74833
     152        1        6     0.00000   -1.36548   13.47790    8.84802
     153        1        6     0.00000   -1.53968   12.13115    7.71026
     154        1        6     0.00000   -0.51938   13.52512    7.29009
     155        1        6     0.00000    2.68803   13.50599    8.90671
     156        1        6     0.00000    2.23475   13.03960   10.55519
     157        1        6     0.00000    1.32893   14.31632    9.71780
     158        1        6     0.00000    0.09960    9.83612    9.87131
     159        1        6     0.00000   -0.71399   11.13728   10.75387
     160        1        6     0.00000    1.01074   10.83159   11.02582
     161      444        2     0.00000    7.41498    1.56042   15.56831
     162      444        2     0.00000    0.96856   12.35241   15.57526
     163      444        2     0.00000   -0.77844   12.51039   15.81432
     164      444        2     0.00000    5.82264    4.63993    6.57704
     165      444        2     0.00000    4.84237    3.14975    6.66641
     166      444        2     0.00000    6.09321    3.47720    7.88577
     167      444        2     0.00000    0.38872    6.27614   11.94683
     168      444        2     0.00000    0.27010    7.79148   12.86569
     169      444        2     0.00000    0.77998    6.29186   13.67853
     170      444        2     0.00000    2.27102    8.88186   10.49272
     171      444        2     0.00000    2.39695    7.22395    9.86984
     172      444        2     0.00000    3.86587    8.08651   10.36585
     173      444        2     0.00000    0.77719    7.52957   15.45730
     174      444        2     0.00000    1.08005    8.15648   17.08822
     175      444        2     0.00000    0.00185    6.74943   16.86701
     176      444        2     0.00000    2.69578   10.18653    2.49522
     177      444        2     0.00000    3.77964    8.98803    1.73993
     178      444        2     0.00000    3.49244    8.95928    3.48688
     179      444        2     0.00000   -1.56063    8.00977   15.77716
     180      444        2     0.00000   -1.53132    9.53726   14.86933
     181      444        2     0.00000   -2.96313    9.10940   15.83165
     182        1        6     0.00000   -0.82190    9.83403    6.02708
     183        1        6     0.00000   -0.29719   10.28756    4.40359
     184        1        6     0.00000   -0.91620   11.53826    5.50285
     185      444        2     0.00000   -0.59425    1.58781    8.72394
     186      444        2     0.00000   -8.11529   12.47401    9.57347
     187      444        2     0.00000   13.39347    1.44492    9.77963
     188      444        2     0.00000   11.54048    2.59656   13.05485
     189      444        2     0.00000   11.13881    1.98947   11.43636
     190      444        2     0.00000   12.80505    2.46732   11.81746
     191      444        2     0.00000   -0.93720    0.70219   13.82364
     192      444        2     0.00000    6.54658   11.67773   14.58614
     193      444        2     0.00000   13.21286    0.90234   15.05739
     194      444        2     0.00000    3.68985   10.75026   13.66460
     195      444        2     0.00000    2.84388   11.67538   12.40800
     196      444        2     0.00000    2.91776   12.30920   14.06701
     197      444        2     0.00000    8.95085    2.31143    4.22974
     198      444        2     0.00000    7.82074    2.44669    2.86596
     199      444        2     0.00000    7.98814    3.79575    4.00123
     200      444        2     0.00000    4.21914    5.78854    5.18146
     201      444        2     0.00000    3.70414    6.65273    3.72111
     202      444        2     0.00000    4.45428    7.54589    5.08130
     203      444        2     0.00000   11.29079    4.74917    8.54192
     204      444        2     0.00000   11.28356    3.00805    8.85837
     205      444        2     0.00000   10.03068    4.04042    9.59313
     206      444        2     0.00000    7.95326    4.01044   10.68193
     207      444        2     0.00000    7.82984    4.81138    9.08561
     208      444        2     0.00000    6.49312    4.91863   10.25343
     209      444        2     0.00000    7.30487    6.15900   13.15114
     210      444        2     0.00000    6.19074    7.01347   12.07055
     211      444        2     0.00000    7.54974    7.88848   12.80648
     212      444        2     0.00000    2.94453    9.23561   16.13210
     213      444        2     0.00000    2.98183   10.99261   15.84166
     214      444        2     0.00000    2.68405   10.39359   17.47787
     215      444        2     0.00000    5.51662    9.91634    3.59286
     216      444        2     0.00000    5.50937   11.69245    3.68822
     217      444        2     0.00000    4.44111   10.74955    4.74296
     218      444        3     0.00000   -0.78403    3.51031    2.38514
     219      444        3     0.00000   -5.13496   12.21623    7.03160
     220      444        3     0.00000   -2.38756    5.53414   13.97226
     221      444        3     0.00000    0.21055    3.63103    7.10759
     222      444        3     0.00000    0.15252    5.98681    9.08833
     223      444        3     0.00000   -5.58694    7.70369   14.72610
     224      444        3     0.00000   -1.82810    6.70191    1.23975
     225      444        3     0.00000   -4.50950   10.59643    3.99560
     226      444        3     0.00000   -6.96917   11.79672    2.41140
     227      444        3     0.00000    0.05791    2.05482   17.18981
     228      444        3     0.00000   -2.31241    9.28482    8.89728
     229      444        3     0.00000   -3.62450   11.15080   13.65419
     230      444        3     0.00000    5.08664    1.42606    4.20898
     231      444        3     0.00000    2.36434    2.80098    4.42700
     232      444        3     0.00000    4.14861    1.99753   15.84653
     233        1        7     0.00000   -0.82787   12.86335    8.11314
     234        1        7     0.00000    1.83687   13.35249    9.58096
     235        1        7     0.00000    0.22524   10.85419   10.25808
     236      444        3     0.00000    7.28124    0.51598   15.26225
     237      444        3     0.00000    5.31945    3.94201    7.26037
     238      444        3     0.00000    0.85725    6.86683   12.74571
     239      444        3     0.00000    2.80563    7.92927   10.60369
     240      444        3     0.00000    0.91657    7.23978   16.50616
     241      444        3     0.00000    3.01697    9.13482    2.51701
     242      444        3     0.00000   -1.86700    9.06179   15.80182
     243        1        7     0.00000   -0.31680   10.62080    5.45012
     244      444        3     0.00000   14.02343    0.91049    9.05911
     245      444        3     0.00000   11.90720    1.97961   12.22204
     246      444        3     0.00000   13.53346    0.28492   14.20826
     247      444        3     0.00000    3.48324   11.76584   13.29855
     248      444        3     0.00000    8.53888    3.00340    3.48409
     249      444        3     0.00000    4.47603    6.61240    4.50080
     250      444        3     0.00000   10.63798    3.87973    8.69580
     251      444        3     0.00000    7.58718    4.89920   10.15082
     252      444        3     0.00000    7.24483    6.92959   12.37245
     253      444        3     0.00000    3.24481   10.20194   16.55426
     254      444        3     0.00000    5.43679   10.77086    4.27784
     255      444        4     0.00000   -2.98900    5.84387    4.88134
     256      444        4     0.00000   -2.04772    5.41280    7.31877
     257      444        4     0.00000   -4.39579    5.45511   16.05592
     258      444        4     0.00000   -3.98072    7.34906    2.96591
     259      444        4     0.00000   -3.57510    8.97725    0.91750
     260      444        4     0.00000   -4.49324   11.46343    0.42021
     261      444        4     0.00000   -4.20581    7.19969    9.21946
     262      444        4     0.00000   -3.27904    7.69835    6.73777
     263      444        4     0.00000   -5.97249   11.25316    9.60855
     264      444        4     0.00000   -6.01079   11.78534   12.20198
     265      444        4     0.00000    2.97311    0.97094    2.27326
     266      444        4     0.00000    6.83027    1.02907    1.06836
     267      444        4     0.00000    1.93774    1.43838    9.33866
     268      444        4     0.00000    1.65345    3.27723   11.25163
     269      444        4     0.00000    3.85881    1.74480   11.09065
     270      444        4     0.00000    5.68681    1.13407   12.89464
     271      444        4     0.00000    4.09590    3.34602    2.27704
     272      444        4     0.00000    6.12979    3.52370    0.54852
     273      444        4     0.00000   -0.87192    7.21510    5.73954
     274      444        4     0.00000    4.40560    5.49561    0.80631
     275      444        4     0.00000    3.35878    3.69617    9.32763
     276      444        4     0.00000    5.09254    3.72583   12.32655
     277      444        4     0.00000    3.58477    5.91384   12.41325
     278      444        4     0.00000    0.68774    7.95187    3.69338
     279      444        4     0.00000    0.59383    8.61106    1.10778
     280      444        4     0.00000   -0.22310   10.93541    0.08535
     281        1        8     0.00000    1.46070   11.18451    7.69740
     282      444        4     0.00000   11.91718    0.37387    0.53659
     283      444        4     0.00000   12.93119    2.87065    4.63530
     284      444        4     0.00000   12.33824    1.68081    6.95328
     285      444        4     0.00000   10.79369    2.33900    1.93422
     286      444        4     0.00000   10.91357    4.71720    3.05454
     287      444        4     0.00000    6.11324    4.98443    2.78233
     288      444        4     0.00000    8.76669    6.46438   17.07154
     289      444        4     0.00000    9.28540    4.31647    1.02427
     290      444        4     0.00000   10.64012    3.37411    5.88278
     291      444        4     0.00000    9.79803    6.42370    4.77742
     292      444        4     0.00000    7.19185    5.97328    4.96037
     293      444        4     0.00000    8.77499    5.00587    6.81363
     294      444        4     0.00000    8.69122    5.05569   14.82806
     295      444        4     0.00000    5.02279    5.10598   14.53034
     296      444        4     0.00000    6.17386    6.01027   16.67908
     297      444        4     0.00000    3.69209    6.82938   16.06684
     298      444        4     0.00000    9.86249    6.29988   11.35534
     299      444        4     0.00000    6.64799    7.58239    2.86349
     300      444        4     0.00000    8.78699    6.87652    1.39070
     301      444        4     0.00000    8.84387    9.04698    2.81361
     302      444        4     0.00000    7.21739    8.90779    0.68111
     303      444        4     0.00000    8.41943    7.60144    6.68994
     304      444        4     0.00000    4.59237   11.75012    8.00416
     305      444        4     0.00000    8.25108   10.51411    4.96987
     306      444        4     0.00000    6.39949    9.37255    6.51891
     307      444        4     0.00000    6.77937   12.03090    6.50072
     308      444        4     0.00000    7.69068   10.01386   11.20176
     309      444        4     0.00000    5.50528    9.87810    9.71593
     310      444        4     0.00000    5.71133   11.78192   11.56888

Bonds

       1        1        1       52
       2        2        1      227
       3        3        1      260
       4        3        1      265
       5        1        2       53
       6        1        2       54
       7        2        2      218
       8        3        2      283
       9        1        3       55
      10        2        3      219
      11        3        3      263
      12        3        3      267
      13        1        4       56
      14        1        4       57
      15        1        4       91
      16        3        4      282
      17        1        5       58
      18        1        5       59
      19        1        5       60
      20        3        5      268
      21        3        6      255
      22        3        6      258
      23        3        6      286
      24        3        6      291
      25        1        7       61
      26        1        7       64
      27        2        7      220
      28        3        7      257
      29        1        8       62
      30        2        8      221
      31        2        8      222
      32        3        8      256
      33        1        9       63
      34        1        9       93
      35        3        9      261
      36        3        9      298
      37        3       10      255
      38        3       10      256
      39        3       10      262
      40        3       10      273
      41        2       11      223
      42        3       11      257
      43        3       11      288
      44        3       11      294
      45        1       12       65
      46        2       12      224
      47        3       12      258
      48        3       12      259
      49        2       13      225
      50        2       13      226
      51        3       13      301
      52        3       13      305
      53        1       14       66
      54        1       14       67
      55        3       14      259
      56        3       14      260
      57        1       15       68
      58        2       15      228
      59        3       15      261
      60        3       15      262
      61        1       16      103
      62        3       16      263
      63        3       16      264
      64        3       16      308
      65        1       17       69
      66        1       17       70
      67        2       17      229
      68        3       17      264
      69        1       18       71
      70        1       18       72
      71        3       18      266
      72        3       18      280
      73        2       19      230
      74        2       19      231
      75        3       19      265
      76        3       19      271
      77        1       20       73
      78        2       20      232
      79        3       20      266
      80        3       20      272
      81        2       21      233
      82        2       21      234
      83        2       21      235
      84        3       21      281
      85        3       22      267
      86        3       22      268
      87        3       22      269
      88        3       22      275
      89        1       23       74
      90        1       23       75
      91        2       23      236
      92        3       23      270
      93        1       24       76
      94        3       24      269
      95        3       24      270
      96        3       24      276
      97        3       25      271
      98        3       25      272
      99        3       25      274
     100        3       25      287
     101        1       26       77
     102        1       26       78
     103        3       26      273
     104        3       26      278
     105        1       27       79
     106        2       27      240
     107        3       27      274
     108        3       27      297
     109        1       28       80
     110        1       28       81
     111        2       28      237
     112        3       28      275
     113        1       29       82
     114        3       29      276
     115        3       29      277
     116        3       29      295
     117        1       30       83
     118        2       30      238
     119        2       30      239
     120        3       30      277
     121        1       31       84
     122        2       31      241
     123        3       31      278
     124        3       31      279
     125        1       32       85
     126        2       32      242
     127        3       32      279
     128        3       32      280
     129        1       33       86
     130        1       33       87
     131        2       33      243
     132        3       33      281
     133        1       34       88
     134        1       34       89
     135        3       34      282
     136        3       34      285
     137        2       35      244
     138        3       35      284
     139        3       35      304
     140        3       35      307
     141        1       36       90
     142        3       36      283
     143        3       36      284
     144        3       36      290
     145        2       37      245
     146        2       37      246