Created on Sun Oct 05 23:43:51 2025 

         371 atoms
         396 bonds
         751 angles
         942 dihedrals

           4 atom types
           4 bond types
           9 angle types
           2 dihedral types
           0.000000  16.859739 xlo xhi
           0.000000  12.609509 ylo yhi
           0.000000  18.640259 zlo zhi
          -8.851026   0.458890   0.205421 xy xz yz

Masses

    1    28.085500000 # Si3
    2     1.007940000 # H_
    3    12.010700000 # C_3
    4    15.999400000 # O_2

Bond Coeffs

    1      172.712984        1.470529  # Si3 H_
    2      365.702108        1.692864  # Si3 O_2
    3      226.661263        1.866919  # Si3 C_3
    4      331.069389        1.109401  # H_ C_3

Angle Coeffs

    1                      fourier       32.417871        0.343737        0.374972        0.281246 # H_ Si3 H_
    2                      fourier       83.380072        0.343737        0.374972        0.281246 # H_ Si3 O_2
    3                      fourier      221.735285        0.343737        0.374972        0.281246 # O_2 Si3 O_2
    4                      fourier      114.246973        0.343737        0.374972        0.281246 # C_3 Si3 C_3
    5                      fourier      157.882480        0.343737        0.374972        0.281246 # C_3 Si3 O_2
    6                      fourier       58.020602        0.343737        0.374972        0.281246 # H_ Si3 C_3
    7                      fourier       90.420412        0.343737        0.374972        0.281246 # Si3 C_3 H_
    8                      fourier       75.498766        0.343737        0.374972        0.281246 # H_ C_3 H_
    9              cosine/periodic       88.853997              -1               3 # Si3 O_2 Si3

Dihedral Coeffs

    1        0.333333               1               3 # H_ Si3 O_2 Si3
    2        0.089508               1               3 # C_3 Si3 C_3 H_

Pair Coeffs

    1        0.402000        3.826410 # Si3 Si3
    2        0.044000        2.571134 # H_ H_
    3        0.105000        3.430851 # C_3 C_3
    4        0.060000        3.118146 # O_2 O_2

Atoms

       1      444        1     0.00000    2.06190    0.87890    2.97661
       2      444        1     0.00000   -1.44846    2.44081    4.37916
       3      444        1     0.00000   -5.34686   12.20523    9.07344
       4      444        1     0.00000    0.29591    2.44373    6.74440
       5      444        1     0.00000    3.59922    0.13100   14.62600
       6      444        1     0.00000   15.39093    2.25770   16.66320
       7      444        1     0.00000    2.32557    1.42121   11.96117
       8      444        1     0.00000   -0.21116    4.51992    2.53837
       9      444        1     0.00000   -3.85942    6.81580    4.36217
      10      444        1     0.00000   -0.89954    6.49531    0.46351
      11      444        1     0.00000   -1.08882    4.44961    8.35727
      12      444        1     0.00000   11.24692    6.98727   10.26966
      13      444        1     0.00000   -1.69579    6.94177    6.77435
      14      444        1     0.00000    0.38800    4.26987   15.60018
      15      444        1     0.00000   -0.95633    5.62971   13.09051
      16      444        1     0.00000    9.01764   10.90765    4.21024
      17      444        1     0.00000   -5.97711   12.05920    0.28445
      18      444        1     0.00000   -3.04169    8.50751    9.17882
      19      444        1     0.00000   -3.69758   10.56733    7.06973
      20      444        1     0.00000   -6.99047   10.91575   16.60808
      21      444        1     0.00000   -3.53524   10.14517   14.11286
      22      444        1     0.00000    0.67471   12.05777    2.46501
      23      444        1     0.00000    7.53441    1.79389   17.54416
      24      444        1     0.00000    8.81570    0.81363    7.59531
      25      444        1     0.00000    4.79787    2.10441   10.33455
      26      444        1     0.00000    8.58740    0.27105   13.71332
      27      444        1     0.00000    4.85012    2.62389   16.28760
      28      444        1     0.00000    7.00166    2.69024   12.48224
      29      444        1     0.00000    6.24028    3.34281    1.52181
      30      444        1     0.00000    1.64164    6.11569    4.32691
      31      444        1     0.00000    4.29321    5.46412    0.34320
      32      444        1     0.00000    5.37691    4.48793    8.40087
      33      444        1     0.00000    0.39833    6.12989   10.36835
      34      444        1     0.00000    4.14373    6.17757    6.13270
      35      444        1     0.00000    5.83368    4.69780   14.50412
      36      444        1     0.00000    2.13966    6.12420   17.61193
      37      444        1     0.00000    4.22973    6.71560   12.94134
      38      444        1     0.00000    3.12920    7.80750    2.15996
      39      444        1     0.00000    0.59219    9.85601    4.70506
      40      444        1     0.00000    1.89092   10.10362    0.24167
      41      444        1     0.00000    1.27343    8.51997    8.56874
      42      444        1     0.00000   -1.76570   10.03659   11.43891
      43      444        1     0.00000    2.55518    9.26350   13.92862
      44      444        1     0.00000    1.14726   11.05609   11.75283
      45      444        1     0.00000    5.24838   11.87331    0.83367
      46      444        1     0.00000   10.29571    2.21441    3.81307
      47      444        1     0.00000   12.58669    1.40172   17.86978
      48      444        1     0.00000    4.84078   12.41905    7.67977
      49      444        1     0.00000   10.37566    2.82870    9.15824
      50      444        1     0.00000   12.67547    2.08803    5.69514
      51      444        1     0.00000   14.49653    0.19130   14.65089
      52      444        1     0.00000   10.27932    1.69952   16.01271
      53      444        1     0.00000   12.14942    2.09755   11.59027
      54      444        1     0.00000   12.00992    4.60064    2.38079
      55      444        1     0.00000   10.58307    6.26646    0.05700
      56      444        1     0.00000   11.93565    4.61230    7.31336
      57      444        1     0.00000    6.06779    6.87016   10.35906
      58      444        1     0.00000   10.28637    6.68730    5.92266
      59      444        1     0.00000   11.95051    3.72659   14.36994
      60      444        1     0.00000    8.67785    7.81751   11.96250
      61      444        1     0.00000    4.56902   10.19396    3.36315
      62      444        1     0.00000    7.00999   10.15281   17.34623
      63      444        1     0.00000    6.96409    8.48776    8.12260
      64      444        1     0.00000    3.22484   10.60432    9.63323
      65      444        1     0.00000    6.46806   10.37197    5.79805
      66      444        1     0.00000    4.28522   10.58995   16.30473
      67      444        2     0.00000    3.39525    0.78364    3.62331
      68      444        2     0.00000    1.52794    2.25545    2.99592
      69      444        2     0.00000   -0.12807    1.03726    6.93254
      70      444        2     0.00000    2.08565    0.28834   11.05988
      71      444        2     0.00000    0.47299    3.88607    1.39114
      72      444        2     0.00000   -1.57854    5.53179   -0.43982
      73      444        2     0.00000   -2.42254    3.83163    8.42359
      74      444        2     0.00000   -1.63189    4.44276   12.49816
      75      444        2     0.00000    4.05651    0.50409   17.95290
      76      444        2     0.00000   -4.37254    9.41105    6.44355
      77      444        2     0.00000   10.57386    9.62697   16.44563
      78      444        2     0.00000   -2.85424    9.88060   15.41246
      79      444        2     0.00000    9.21350   -0.04634    6.44972
      80      444        2     0.00000    7.81208    1.81467    7.12060
      81      444        2     0.00000   -0.90261   11.70328   14.32856
      82      444        2     0.00000    4.12474    2.71382   17.56255
      83      444        2     0.00000    0.77373    6.87935    5.22958
      84      444        2     0.00000   -0.71285    7.99061    6.45820
      85      444        2     0.00000    6.46178    4.04390    7.50554
      86      444        2     0.00000    7.14302    4.84957   15.16266
      87      444        2     0.00000    1.89544    9.20293    5.00716
      88      444        2     0.00000   -0.03399   10.21894    6.00056
      89      444        2     0.00000    1.09440    9.96236   18.18836
      90      444        2     0.00000    3.79683    7.55394    6.55306
      91      444        2     0.00000    0.37050    9.64163    8.21046
      92      444        2     0.00000    1.61164    7.67834    7.39571
      93      444        2     0.00000   -2.27747   11.26506   10.81840
      94      444        2     0.00000   -0.70087    1.21464    4.12039
      95      444        2     0.00000   13.53261    0.88722   13.76835
      96      444        2     0.00000   13.35210    2.70918   10.96592
      97      444        2     0.00000    6.45620   11.81550   13.88828
      98      444        2     0.00000   12.36095    0.66393   11.88637
      99      444        2     0.00000   12.85693    5.69704    7.65155
     100      444        2     0.00000   10.58157    6.24513    9.18204
     101      444        2     0.00000   13.34668    3.65475   14.86096
     102      444        2     0.00000   11.52968    5.13804   14.18257
     103      444        2     0.00000    7.44154    8.98803   18.13742
     104      444        2     0.00000    7.58922    7.18857    7.76980
     105      444        2     0.00000   -5.84046    9.88170    9.69931
     106      444        2     0.00000   -6.35462   10.98040   10.98200
     107      444        2     0.00000   -4.63950   10.58136   10.79439
     108      444        2     0.00000    1.05657   -0.00209    9.16277
     109      444        2     0.00000    1.74124    0.26703    7.55516
     110      444        2     0.00000    1.90916    1.51265    8.81971
     111      444        2     0.00000    2.09891    3.22060    5.24516
     112      444        2     0.00000    2.47152    1.60944    5.91442
     113      444        2     0.00000    2.68815    3.06246    6.90801
     114      444        2     0.00000    0.79214    1.83396   17.37541
     115      444        2     0.00000   16.60829    0.75689   18.27411
     116      444        2     0.00000   -0.59059    2.27951    0.08377
     117      444        2     0.00000   -4.53210    8.10947    2.45390
     118      444        2     0.00000   -2.75718    8.00178    2.50725
     119      444        2     0.00000   -3.61309    9.14376    3.57461
     120      444        2     0.00000   -1.09239    8.63685   17.81820
     121      444        2     0.00000   -1.18892    8.95334    0.83863
     122      444        2     0.00000   -2.74171    8.16642    0.46562
     123      444        2     0.00000    0.37949    2.56168   11.05412
     124      444        2     0.00000    0.84503    3.34514   12.58510
     125      444        2     0.00000   -0.01214    1.78639   12.60441
     126      444        2     0.00000    2.26699    3.17074   14.49947
     127      444        2     0.00000    1.00571    1.96754   14.86672
     128      444        2     0.00000    2.06253    2.59602   16.15042
     129      444        2     0.00000   12.98836    5.36563   10.87379
     130      444        2     0.00000   11.45993    5.04143   11.72057
     131      444        2     0.00000   12.52051    6.34074   12.29347
     132      444        2     0.00000   -2.70218    7.36975   13.07709
     133      444        2     0.00000   -1.66427    7.51996   14.51064
     134      444        2     0.00000   -2.89333    6.23618   14.44998
     135      444        2     0.00000    9.11875   10.06593    1.91668
     136      444        2     0.00000    7.43578   10.30412    2.39240
     137      444        2     0.00000    8.31688    8.87933    2.96061
     138      444        2     0.00000   -4.34209   10.20990    0.28415
     139      444        2     0.00000   -5.31949   10.17064    1.76428
     140      444        2     0.00000   -4.00503   11.35274    1.60148
     141      444        2     0.00000   -5.92857    9.43910    4.88112
     142      444        2     0.00000   -5.89007   11.05912    5.62360
     143      444        2     0.00000   -5.40523   10.84270    3.93142
     144      444        2     0.00000   -4.72015    7.96798   14.03580
     145      444        2     0.00000   -5.26980    9.05892   12.73948
     146      444        2     0.00000   -5.82441    9.30307   14.40872
     147      444        2     0.00000   -1.69713   12.09579    2.99599
     148      444        2     0.00000   -1.42185   11.12530    1.53503
     149      444        2     0.00000    7.42188    0.29259    1.44082
     150      444        2     0.00000   -1.74429   12.25408   16.50666
     151      444        2     0.00000   -2.44432   12.25607   18.13464
     152      444        2     0.00000   -0.69446   12.01582   17.91877
     153      444        2     0.00000    6.57389    1.68472    3.36280
     154      444        2     0.00000    4.99342    1.53922    2.57446
     155      444        2     0.00000    5.27394    2.84264    3.74151
     156      444        2     0.00000    7.45703    5.43063    1.08783
     157      444        2     0.00000    8.50570    4.34152    2.00858
     158      444        2     0.00000    7.17435    5.20753    2.81507
     159      444        2     0.00000    6.75810    6.85638   18.24797
     160      444        2     0.00000    5.60536    6.81309   16.91367
     161      444        2     0.00000    6.54901    5.36122   17.31587
     162      444        2     0.00000    5.68223    6.69890    4.29610
     163      444        2     0.00000    5.91381    5.02176    4.87980
     164      444        2     0.00000    6.56202    6.39740    5.80855
     165      444        2     0.00000    2.06195    5.15875    8.91661
     166      444        2     0.00000    2.11294    4.30590   10.46319
     167      444        2     0.00000    2.86199    5.91280   10.29932
     168      444        2     0.00000    2.77413    5.22857   14.09850
     169      444        2     0.00000    3.29820    4.48818   12.56909
     170      444        2     0.00000    1.99220    5.71193   12.59446
     171      444        2     0.00000    0.05257    8.55581    2.71438
     172      444        2     0.00000   -1.35373    9.47395    3.30044
     173      444        2     0.00000   -0.91163    7.93408    4.06078
     174      444        2     0.00000   -3.26645   12.06950    5.21739
     175      444        2     0.00000   -2.18399   10.65552    5.12695
     176      444        2     0.00000   -1.80472   11.99328    6.22575
     177      444        2     0.00000   -0.34778   11.49228    9.10782
     178      444        2     0.00000   -1.88392   12.35214    8.82806
     179      444        2     0.00000    8.16570    0.42603    9.92888
     180      444        2     0.00000    2.26211    8.26361   16.48203
     181      444        2     0.00000    3.48431    7.15071   15.80263
     182      444        2     0.00000    3.74677    7.93028   17.37060
     183      444        2     0.00000    0.98749    7.53626   14.85981
     184      444        2     0.00000    0.31056    8.46743   13.51296
     185      444        2     0.00000    0.40753    9.20580   15.12415
     186      444        2     0.00000   15.07977    1.44362    1.52472
     187      444        2     0.00000   16.02222    0.06648    2.13081
     188      444        2     0.00000   14.45374    0.46772    2.85459
     189      444        2     0.00000    8.13091    1.92328    4.94748
     190      444        2     0.00000    8.10145    3.36406    3.90625
     191      444        2     0.00000    8.96479    3.40249    5.45701
     192      444        2     0.00000   15.39714    1.27934    8.69747
     193      444        2     0.00000    6.50270   12.33062    9.53887
     194      444        2     0.00000   14.08562    0.92149    9.82739
     195      444        2     0.00000    7.96673    3.25901    9.59384
     196      444        2     0.00000    8.60192    4.11144    8.17031
     197      444        2     0.00000    8.92360    4.74450    9.78610
     198      444        2     0.00000    8.29991    4.68412   11.84881
     199      444        2     0.00000    9.34451    3.22729   11.83308
     200      444        2     0.00000    8.82095    3.93053   13.37347
     201      444        2     0.00000   10.88808    3.23736   -0.19878
     202      444        2     0.00000   11.45374    2.37885    1.25695
     203      444        2     0.00000   10.07481    1.77506    0.36073
     204      444        2     0.00000   12.97594    3.89961    0.21129
     205      444        2     0.00000   13.66460    2.95187    1.55038
     206      444        2     0.00000   -2.70270    4.62592    1.30733
     207      444        2     0.00000   12.10727    7.11860   16.58884
     208      444        2     0.00000   -3.65284    6.04504   17.47567
     209      444        2     0.00000   -3.79117    7.75894   17.92921
     210      444        2     0.00000    9.77385    8.55087   18.26704
     211      444        2     0.00000   10.30877    8.49733    1.08863
     212      444        2     0.00000    8.79418    7.57658    1.13871
     213      444        2     0.00000    8.81671    4.50275   -0.37122
     214      444        2     0.00000   10.43212    4.79072   16.93835
     215      444        2     0.00000    9.22208    6.06040   17.12235
     216      444        2     0.00000    9.48929    6.19953    3.65575
     217      444        2     0.00000    8.38668    7.34010    4.46261
     218      444        2     0.00000    8.32803    5.61600    4.86089
     219      444        2     0.00000    9.54466    6.04585   13.52712
     220      444        2     0.00000    7.98524    6.73045   14.05429
     221      444        2     0.00000    9.48109    7.65425   14.26806
     222      444        2     0.00000    8.92827   10.10033   12.86122
     223      444        2     0.00000    7.26666    9.51720   13.03122
     224      444        2     0.00000    7.82676   10.14679   11.46889
     225      444        2     0.00000    3.09181   11.31993    5.04437
     226      444        2     0.00000    3.04804   12.14663    3.47207
     227      444        2     0.00000    4.47423   12.26111    4.48705
     228      444        2     0.00000    9.41260    8.84952    6.70546
     229      444        2     0.00000   10.97624    8.44931    7.43135
     230      444        2     0.00000    9.50726    7.68895    8.05949
     231      444        2     0.00000    8.56221   10.38635    8.01829
     232      444        2     0.00000    8.80145    9.44619    9.50489
     233      444        2     0.00000    7.41689   10.54750    9.36173
     234      444        2     0.00000    5.57506   10.30214   10.32408
     235      444        2     0.00000    4.46305    9.66546   11.53767
     236      444        2     0.00000    4.70900   11.42177   11.40998
     237      444        3     0.00000   -5.56725   10.78602   10.24651
     238      444        3     0.00000    1.90700    0.43181    8.62444
     239      444        3     0.00000    2.04941    2.59730    6.14525
     240      444        3     0.00000   -0.17356    1.77389   17.88978
     241      444        3     0.00000   -3.65197    8.14991    3.11179
     242      444        3     0.00000   -1.66975    8.17068    0.24199
     243      444        3     0.00000    0.74772    2.38113   12.07583
     244      444        3     0.00000    1.51900    2.86025   15.23610
     245      444        3     0.00000   12.14412    5.83651   11.39736
     246      444        3     0.00000   -2.16864    6.80478   13.84817
     247      444        3     0.00000    8.40912    9.95101    2.74521
     248      444        3     0.00000   -4.81080   10.83726    1.05735
     249      444        3     0.00000   -6.11133   10.50352    4.70253
     250      444        3     0.00000   -4.96488    9.01002   13.79413
     251      444        3     0.00000   -1.13130   12.04735    2.05490
     252      444        3     0.00000   -1.57016   12.56303   17.54883
     253      444        3     0.00000    5.74234    2.25471    2.93894
     254      444        3     0.00000    7.47122    4.68631    1.89454
     255      444        3     0.00000    6.01759    6.22254   17.73997
     256      444        3     0.00000    5.72416    6.05980    5.18867
     257      444        3     0.00000    2.00495    5.29447   10.00658
     258      444        3     0.00000    2.94526    5.41869   13.03176
     259      444        3     0.00000   -0.51044    8.84490    3.61013
     260      444        3     0.00000   -2.62262   11.39774    5.80540
     261      444        3     0.00000   -0.80726   12.47916    8.98887
     262      444        3     0.00000    2.98623    7.48239   16.71996
     263      444        3     0.00000    0.92535    8.53635   14.41945
     264      444        3     0.00000   15.01102    0.42645    1.91191
     265      444        3     0.00000    8.71980    2.77547    4.58817
     266      444        3     0.00000   14.73350    0.48454    9.05557
     267      444        3     0.00000    8.82416    3.82175    9.20629
     268      444        3     0.00000    8.51314    3.72628   12.33555
     269      444        3     0.00000   11.05109    2.25650    0.25921
     270      444        3     0.00000   13.30970    3.94150    1.25022
     271      444        3     0.00000   12.50271    6.88208   17.59012
     272      444        3     0.00000    9.66857    7.81441    0.51863
     273      444        3     0.00000    9.89683    5.39172   17.68204
     274      444        3     0.00000    9.00028    6.44164    4.61003
     275      444        3     0.00000    8.95371    6.96591   13.59291
     276      444        3     0.00000    8.12425    9.55739   12.34188
     277      444        3     0.00000    3.67632   11.58357    4.15866
     278      444        3     0.00000    9.99919    8.03785    7.15279
     279      444        3     0.00000    8.04669    9.83452    8.81276
     280      444        3     0.00000    4.62737   10.48963   10.83521
     281      444        4     0.00000   -0.83078    3.11003    5.73003
     282      444        4     0.00000    2.81560    0.73477   13.35685
     283      444        4     0.00000   -1.32328    3.49575    3.13982
     284      444        4     0.00000   -0.96257    5.89504    2.01598
     285      444        4     0.00000    0.06492    3.29477    8.15172
     286      444        4     0.00000   -2.62472    6.72647    5.44901
     287      444        4     0.00000   -0.94834    5.54150    7.13706
     288      444        4     0.00000   -1.07320    3.79258   16.20666
     289      444        4     0.00000    0.08028    5.14668   14.26660
     290      444        4     0.00000   -7.82095   12.51185    3.78733
     291      444        4     0.00000    2.18938    0.42654    1.40333
     292      444        4     0.00000   -4.55329    8.04090    9.56928
     293      444        4     0.00000   -2.46928    7.38768    8.15116
     294      444        4     0.00000   -2.95210    9.94739    8.40981
     295      444        4     0.00000   -4.76715   11.68335    7.61188
     296      444        4     0.00000   -6.73277   11.48145   18.12245
     297      444        4     0.00000   -6.38861   11.97594   15.52739
     298      444        4     0.00000   -4.08954   11.70040   14.15761
     299      444        4     0.00000    4.65393    0.61833    9.69851
     300      444        4     0.00000    3.54718    2.36506   11.36459
     301      444        4     0.00000    4.30149    1.34092   15.44526
     302      444        4     0.00000    6.46672    2.44415   16.48306
     303      444        4     0.00000    6.24053    2.23032   11.09750
     304      444        4     0.00000    7.41421    1.33805   13.33051
     305      444        4     0.00000    6.84220    2.34741    0.33405
     306      444        4     0.00000    0.85606    4.81213    3.73896
     307      444        4     0.00000    4.84113    4.11096    1.08227
     308      444        4     0.00000    4.69629    3.19584    9.12827
     309      444        4     0.00000   -0.83405    5.21314    9.77452
     310      444        4     0.00000   -0.01331    6.35474   11.94306
     311      444        4     0.00000    2.94072    5.59374    5.15979
     312      444        4     0.00000    4.23626    5.24305    7.50140
     313      444        4     0.00000    4.68844    4.07432   15.51857
     314      444        4     0.00000    5.90252    3.60119   13.29065
     315      444        4     0.00000    1.18802    5.22056   16.65606
     316      444        4     0.00000    3.28359    5.22858   18.37693
     317      444        4     0.00000    0.69289    6.59435    0.08781
     318      444        4     0.00000    5.41636    6.19954   13.98314
     319      444        4     0.00000    2.00857    7.01180    3.01678
     320      444        4     0.00000    4.07934    6.72809    1.39332
     321      444        4     0.00000    0.87093   11.24373    3.86049
     322      444        4     0.00000    2.39713    8.82363    1.11911
     323      444        4     0.00000    1.56759   11.37207    1.24148
     324      444        4     0.00000    0.46829    7.60726    9.66607
     325      444        4     0.00000   -2.20769    8.70494   10.57434
     326      444        4     0.00000   -2.39891    9.95557   12.94408
     327      444        4     0.00000    3.64868    8.17902   13.37429
     328      444        4     0.00000   -0.12808   10.04912   11.53470
     329      444        4     0.00000    2.22189   10.38010   12.77450
     330      444        4     0.00000    0.56545   12.45917   12.36140
     331      444        4     0.00000   10.05340    0.97877    2.74370
     332      444        4     0.00000   13.82398    2.23498   17.15741
     333      444        4     0.00000   12.82100    0.02825    0.15244
     334      444        4     0.00000   10.18453    1.60689    8.09062
     335      444        4     0.00000   13.83421    2.05735    4.54565
     336      444        4     0.00000   11.27168    1.65993    5.00636
     337      444        4     0.00000   13.00260    1.05904    6.89876
     338      444        4     0.00000   15.50643    1.28964   15.32675
     339      444        4     0.00000    9.68426    0.84015   14.77354
     340      444        4     0.00000   11.48694    0.85387   16.73079
     341      444        4     0.00000    9.06017    2.09185   17.02417
     342      444        4     0.00000   10.84800    2.22579   10.60653
     343      444        4     0.00000   11.03080    3.47391    3.07264
     344      444        4     0.00000   12.76953    5.38694    3.60784
     345      444        4     0.00000   11.04915    5.61925    1.52354
     346      444        4     0.00000   11.61866    3.77829    8.67458
     347      444        4     0.00000   12.63937    3.61553    6.24091
     348      444        4     0.00000    5.99407    5.44345    9.57707
     349      444        4     0.00000    4.88707    6.94337   11.46333
     350      444        4     0.00000   11.67012    7.19538    5.20676
     351      444        4     0.00000   10.55579    5.22216    6.66031
     352      444        4     0.00000   10.89911    3.10723   15.46452
     353      444        4     0.00000   11.81409    2.89813   12.97492
     354      444        4     0.00000   10.06761    7.83505   11.05779
     355      444        4     0.00000    7.53544    7.00218   11.06350
     356      444        4     0.00000    3.97705    8.66995    3.25319
     357      444        4     0.00000    4.85640   10.59334    1.79064
     358      444        4     0.00000    8.26422   10.64154   16.38348
     359      444        4     0.00000    6.63600   11.42474   18.28986
     360      444        4     0.00000    5.84208    8.07610    9.26891
     361      444        4     0.00000    2.68490    9.12327    9.16480
     362      444        4     0.00000    3.66080   11.44752    8.28770
     363      444        4     0.00000    1.92871   11.35573   10.35483
     364      444        4     0.00000    8.04683   10.73545    5.54876
     365      444        4     0.00000    5.89243   10.01617    4.31945
     366      444        4     0.00000    6.28227    9.04359    6.73392
     367      444        4     0.00000    5.73765   11.60800    6.55994
     368      444        4     0.00000    3.32077   10.04867   15.13578
     369      444        4     0.00000    5.67506    9.70553   16.48455
     370      444        4     0.00000    4.81060   12.06809   15.86174
     371      444        4     0.00000    3.46570   10.60233   17.71566

Bonds

       1        1        1       67
       2        1        1       68
       3        2        1      290
       4        2        1      291
       5        1        2       94
       6        2        2      281
       7        2        2      283
       8        2        2      335
       9        3        3      237
      10        3        3      238
      11        2        3      295
      12        2        3      299
      13        1        4       69
      14        3        4      239
      15        2        4      281
      16        2        4      285
      17        2        5      282
      18        2        5      297
      19        2        5      298
      20        2        5      301
      21        3        6      240
      22        2        6      288
      23        2        6      332
      24        2        6      338
      25        1        7       70
      26        3        7      243
      27        2        7      282
      28        2        7      300
      29        1        8       71
      30        2        8      283
      31        2        8      284
      32        2        8      306