Created on Mon Oct 06 08:34:39 2025 

         243 atoms
         324 bonds
         648 angles
         972 dihedrals

           2 atom types
           1 bond types
           2 angle types
           1 dihedral types
           0.000000  14.691300 xlo xhi
           0.000000  12.723039 ylo yhi
           0.000000  15.963100 zlo zhi
          -7.345650   0.000000   0.000000 xy xz yz

Masses

    1    28.085500000 # Si3
    2    15.999400000 # O_2

Bond Coeffs

    1      365.702108        1.692864  # Si3 O_2

Angle Coeffs

    1                      fourier      221.735285        0.343737        0.374972        0.281246 # O_2 Si3 O_2
    2              cosine/periodic       88.853997              -1               3 # Si3 O_2 Si3

Dihedral Coeffs

    1        0.333333               1               3 # O_2 Si3 O_2 Si3

Pair Coeffs

    1        0.402000        3.826410 # Si3 Si3
    2        0.060000        3.118146 # O_2 O_2

Atoms

       1      444        1     0.00000    2.31315    0.00000    1.77366
       2      444        1     0.00000   -1.15657    2.00324    3.54732
       3      444        1     0.00000    1.29203    2.23786    0.00000
       4      444        1     0.00000    2.31315    0.00000    7.09464
       5      444        1     0.00000   -1.15657    2.00324    8.86846
       6      444        1     0.00000    1.29203    2.23786    5.32098
       7      444        1     0.00000    2.31315    0.00000   12.41578
       8      444        1     0.00000   -1.15657    2.00324   14.18944
       9      444        1     0.00000    1.29203    2.23786   10.64212
      10      444        1     0.00000   -0.13538    4.24097    1.77366
      11      444        1     0.00000   -3.60510    6.24421    3.54732
      12      444        1     0.00000   -1.15650    6.47883    0.00000
      13      444        1     0.00000   -0.13538    4.24097    7.09464
      14      444        1     0.00000   -3.60510    6.24421    8.86846
      15      444        1     0.00000   -1.15650    6.47883    5.32098
      16      444        1     0.00000   -0.13538    4.24097   12.41578
      17      444        1     0.00000   -3.60510    6.24421   14.18944
      18      444        1     0.00000   -1.15650    6.47883   10.64212
      19      444        1     0.00000   -2.58398    8.48207    1.77366
      20      444        1     0.00000   -6.05362   10.48518    3.54732
      21      444        1     0.00000   -3.60502   10.71980    0.00000
      22      444        1     0.00000   -2.58398    8.48207    7.09464
      23      444        1     0.00000   -6.05362   10.48518    8.86846
      24      444        1     0.00000   -3.60502   10.71980    5.32098
      25      444        1     0.00000   -2.58398    8.48207   12.41578
      26      444        1     0.00000   -6.05362   10.48518   14.18944
      27      444        1     0.00000   -3.60502   10.71980   10.64212
      28      444        1     0.00000    7.21020    0.00000    1.77366
      29      444        1     0.00000    3.74048    2.00324    3.54732
      30      444        1     0.00000    6.18908    2.23786    0.00000
      31      444        1     0.00000    7.21020    0.00000    7.09464
      32      444        1     0.00000    3.74048    2.00324    8.86846
      33      444        1     0.00000    6.18908    2.23786    5.32098
      34      444        1     0.00000    7.21020    0.00000   12.41578
      35      444        1     0.00000    3.74048    2.00324   14.18944
      36      444        1     0.00000    6.18908    2.23786   10.64212
      37      444        1     0.00000    4.76167    4.24097    1.77366
      38      444        1     0.00000    1.29195    6.24421    3.54732
      39      444        1     0.00000    3.74055    6.47883    0.00000
      40      444        1     0.00000    4.76167    4.24097    7.09464
      41      444        1     0.00000    1.29195    6.24421    8.86846
      42      444        1     0.00000    3.74055    6.47883    5.32098
      43      444        1     0.00000    4.76167    4.24097   12.41578
      44      444        1     0.00000    1.29195    6.24421   14.18944
      45      444        1     0.00000    3.74055    6.47883   10.64212
      46      444        1     0.00000    2.31307    8.48207    1.77366
      47      444        1     0.00000   -1.15657   10.48518    3.54732
      48      444        1     0.00000    1.29203   10.71980    0.00000
      49      444        1     0.00000    2.31307    8.48207    7.09464
      50      444        1     0.00000   -1.15657   10.48518    8.86846
      51      444        1     0.00000    1.29203   10.71980    5.32098
      52      444        1     0.00000    2.31307    8.48207   12.41578
      53      444        1     0.00000   -1.15657   10.48518   14.18944
      54      444        1     0.00000    1.29203   10.71980   10.64212
      55      444        1     0.00000   12.10725    0.00000    1.77366
      56      444        1     0.00000    8.63768    2.00324    3.54732
      57      444        1     0.00000   11.08613    2.23786    0.00000
      58      444        1     0.00000   12.10725    0.00000    7.09464
      59      444        1     0.00000    8.63768    2.00324    8.86846
      60      444        1     0.00000   11.08613    2.23786    5.32098
      61      444        1     0.00000   12.10725    0.00000   12.41578
      62      444        1     0.00000    8.63768    2.00324   14.18944
      63      444        1     0.00000   11.08613    2.23786   10.64212
      64      444        1     0.00000    9.65872    4.24097    1.77366
      65      444        1     0.00000    6.18915    6.24421    3.54732
      66      444        1     0.00000    8.63760    6.47883    0.00000
      67      444        1     0.00000    9.65872    4.24097    7.09464
      68      444        1     0.00000    6.18915    6.24421    8.86846
      69      444        1     0.00000    8.63760    6.47883    5.32098
      70      444        1     0.00000    9.65872    4.24097   12.41578
      71      444        1     0.00000    6.18915    6.24421   14.18944
      72      444        1     0.00000    8.63760    6.47883   10.64212
      73      444        1     0.00000    7.21012    8.48207    1.77366
      74      444        1     0.00000    3.74063   10.48518    3.54732
      75      444        1     0.00000    6.18908   10.71980    0.00000
      76      444        1     0.00000    7.21012    8.48207    7.09464
      77      444        1     0.00000    3.74063   10.48518    8.86846
      78      444        1     0.00000    6.18908   10.71980    5.32098
      79      444        1     0.00000    7.21012    8.48207   12.41578
      80      444        1     0.00000    3.74063   10.48518   14.18944
      81      444        1     0.00000    6.18908   10.71980   10.64212
      82      444        2     0.00000    1.39391    1.11759    1.12093
      83      444        2     0.00000    0.27091    1.76596    4.20021
      84      444        2     0.00000    1.39391    1.11759    6.44191
      85      444        2     0.00000    0.27091    1.76596   14.84217
      86      444        2     0.00000    0.27091    1.76596    9.52119
      87      444        2     0.00000    1.39391    1.11759   11.76289
      88      444        2     0.00000   -1.05461    3.12338    2.42655
      89      444        2     0.00000    0.78371    3.59260    0.65289
      90      444        2     0.00000   -1.05469    5.35869    1.12093
      91      444        2     0.00000   -1.05461    3.12338    7.74753
      92      444        2     0.00000    0.78371    3.59260    5.97387
      93      444        2     0.00000   -2.17762    6.00693    4.20021
      94      444        2     0.00000   -1.05469    5.35869    6.44191
      95      444        2     0.00000   -1.05461    3.12338   13.06851
      96      444        2     0.00000    0.78371    3.59260   11.29485
      97      444        2     0.00000   -2.17762    6.00693   14.84217
      98      444        2     0.00000   -2.17762    6.00693    9.52119
      99      444        2     0.00000   -1.05469    5.35869   11.76289
     100      444        2     0.00000   -3.50314    7.36435    2.42655
     101      444        2     0.00000   -1.66489    7.83370    0.65289
     102      444        2     0.00000   -5.95174   11.60545    2.42655
     103      444        2     0.00000   -3.50321    9.59966    1.12093
     104      444        2     0.00000   -4.11342   12.07467    0.65289
     105      444        2     0.00000   -3.50314    7.36435    7.74753
     106      444        2     0.00000   -1.66489    7.83370    5.97387
     107      444        2     0.00000   -5.95174   11.60545    7.74753
     108      444        2     0.00000   -4.62622   10.24803    4.20021
     109      444        2     0.00000   -3.50321    9.59966    6.44191
     110      444        2     0.00000   -4.11342   12.07467    5.97387
     111      444        2     0.00000   -3.50314    7.36435   13.06851
     112      444        2     0.00000   -1.66489    7.83370   11.29485
     113      444        2     0.00000   -4.62622   10.24803   14.84217
     114      444        2     0.00000   -5.95174   11.60545   13.06851
     115      444        2     0.00000   -4.62622   10.24803    9.52119
     116      444        2     0.00000   -3.50321    9.59966   11.76289
     117      444        2     0.00000   -4.11342   12.07467   11.29485
     118      444        2     0.00000    3.23223    0.64837    2.89459
     119      444        2     0.00000    2.71943    2.47501    4.66825
     120      444        2     0.00000    6.29096    1.11759    1.12093
     121      444        2     0.00000    3.23223    0.64837    8.21557
     122      444        2     0.00000    2.71943    2.47501    9.98923
     123      444        2     0.00000    5.16811    1.76596    4.20021
     124      444        2     0.00000    6.29096    1.11759    6.44191
     125      444        2     0.00000    3.23223    0.64837   13.53655
     126      444        2     0.00000    5.16811    1.76596   14.84217
     127      444        2     0.00000    2.71943    2.47501   15.31021
     128      444        2     0.00000    5.16811    1.76596    9.52119
     129      444        2     0.00000    6.29096    1.11759   11.76289
     130      444        2     0.00000    3.84244    3.12338    2.42655
     131      444        2     0.00000    5.68091    3.59260    0.65289
     132      444        2     0.00000    0.78371    4.88934    2.89459
     133      444        2     0.00000    0.27083    6.71611    4.66825
     134      444        2     0.00000    3.84236    5.35869    1.12093
     135      444        2     0.00000    3.84244    3.12338    7.74753
     136      444        2     0.00000    5.68091    3.59260    5.97387
     137      444        2     0.00000    0.78371    4.88934    8.21557
     138      444        2     0.00000    0.27083    6.71611    9.98923
     139      444        2     0.00000    2.71958    6.00693    4.20021
     140      444        2     0.00000    3.84236    5.35869    6.44191
     141      444        2     0.00000    3.84244    3.12338   13.06851
     142      444        2     0.00000    5.68091    3.59260   11.29485
     143      444        2     0.00000    0.78371    4.88934   13.53655
     144      444        2     0.00000    2.71958    6.00693   14.84217
     145      444        2     0.00000    0.27083    6.71611   15.31021
     146      444        2     0.00000    2.71958    6.00693    9.52119
     147      444        2     0.00000    3.84236    5.35869   11.76289
     148      444        2     0.00000    1.39391    7.36435    2.42655
     149      444        2     0.00000    3.23231    7.83370    0.65289
     150      444        2     0.00000   -1.66489    9.13043    2.89459
     151      444        2     0.00000   -1.05469   11.60545    2.42655
     152      444        2     0.00000   -2.17769   10.95708    4.66825
     153      444        2     0.00000    1.39384    9.59966    1.12093
     154      444        2     0.00000    0.78378   12.07467    0.65289
     155      444        2     0.00000    1.39391    7.36435    7.74753
     156      444        2     0.00000    3.23231    7.83370    5.97387
     157      444        2     0.00000   -1.66489    9.13043    8.21557
     158      444        2     0.00000   -1.05469   11.60545    7.74753
     159      444        2     0.00000   -2.17769   10.95708    9.98923
     160      444        2     0.00000    0.27098   10.24803    4.20021
     161      444        2     0.00000    1.39384    9.59966    6.44191
     162      444        2     0.00000    0.78378   12.07467    5.97387
     163      444        2     0.00000    1.39391    7.36435   13.06851
     164      444        2     0.00000    3.23231    7.83370   11.29485
     165      444        2     0.00000   -1.66489    9.13043   13.53655
     166      444        2     0.00000    0.27098   10.24803   14.84217
     167      444        2     0.00000   -1.05469   11.60545   13.06851
     168      444        2     0.00000   -2.17769   10.95708   15.31021
     169      444        2     0.00000    0.27098   10.24803    9.52119
     170      444        2     0.00000    1.39384    9.59966   11.76289
     171      444        2     0.00000    0.78378   12.07467   11.29485
     172      444        2     0.00000   13.02648    0.64837    2.89459
     173      444        2     0.00000    8.12928    0.64837    2.89459
     174      444        2     0.00000    7.61663    2.47501    4.66825
     175      444        2     0.00000   12.51368    2.47501   15.31021
     176      444        2     0.00000   11.18816    1.11759    1.12093
     177      444        2     0.00000   13.02648    0.64837    8.21557
     178      444        2     0.00000    8.12928    0.64837    8.21557
     179      444        2     0.00000    7.61663    2.47501    9.98923
     180      444        2     0.00000   12.51368    2.47501    4.66825
     181      444        2     0.00000   10.06516    1.76596    4.20021
     182      444        2     0.00000   11.18816    1.11759    6.44191
     183      444        2     0.00000   13.02648    0.64837   13.53655
     184      444        2     0.00000    8.12928    0.64837   13.53655
     185      444        2     0.00000   10.06516    1.76596   14.84217
     186      444        2     0.00000    7.61663    2.47501   15.31021
     187      444        2     0.00000   12.51368    2.47501    9.98923
     188      444        2     0.00000   10.06516    1.76596    9.52119
     189      444        2     0.00000   11.18816    1.11759   11.76289
     190      444        2     0.00000    8.73963    3.12338    2.42655
     191      444        2     0.00000   10.57796    3.59260    0.65289
     192      444        2     0.00000   10.57796    4.88934    2.89459
     193      444        2     0.00000    5.68076    4.88934    2.89459
     194      444        2     0.00000    5.16803    6.71611    4.66825
     195      444        2     0.00000   10.06508    6.71611   15.31021
     196      444        2     0.00000    8.73956    5.35869    1.12093
     197      444        2     0.00000    8.73963    3.12338    7.74753
     198      444        2     0.00000   10.57796    3.59260    5.97387
     199      444        2     0.00000   10.57796    4.88934    8.21557
     200      444        2     0.00000    5.68076    4.88934    8.21557
     201      444        2     0.00000    5.16803    6.71611    9.98923
     202      444        2     0.00000   10.06508    6.71611    4.66825
     203      444        2     0.00000    7.61663    6.00693    4.20021
     204      444        2     0.00000    8.73956    5.35869    6.44191
     205      444        2     0.00000    8.73963    3.12338   13.06851
     206      444        2     0.00000   10.57796    3.59260   11.29485
     207      444        2     0.00000   10.57796    4.88934   13.53655
     208      444        2     0.00000    5.68076    4.88934   13.53655
     209      444        2     0.00000    7.61663    6.00693   14.84217
     210      444        2     0.00000    5.16803    6.71611   15.31021
     211      444        2     0.00000   10.06508    6.71611    9.98923
     212      444        2     0.00000    7.61663    6.00693    9.52119
     213      444        2     0.00000    8.73956    5.35869   11.76289
     214      444        2     0.00000    6.29111    7.36435    2.42655
     215      444        2     0.00000    8.12936    7.83370    0.65289
     216      444        2     0.00000    8.12936    9.13043    2.89459
     217      444        2     0.00000    3.23216    9.13043    2.89459
     218      444        2     0.00000    3.84251   11.60545    2.42655
     219      444        2     0.00000    2.71951   10.95708    4.66825
     220      444        2     0.00000    7.61656   10.95708   15.31021
     221      444        2     0.00000    6.29104    9.59966    1.12093
     222      444        2     0.00000    5.68083   12.07467    0.65289
     223      444        2     0.00000    6.29111    7.36435    7.74753
     224      444        2     0.00000    8.12936    7.83370    5.97387
     225      444        2     0.00000    8.12936    9.13043    8.21557
     226      444        2     0.00000    3.23216    9.13043    8.21557
     227      444        2     0.00000    3.84251   11.60545    7.74753
     228      444        2     0.00000    2.71951   10.95708    9.98923
     229      444        2     0.00000    7.61656   10.95708    4.66825
     230      444        2     0.00000    5.16803   10.24803    4.20021
     231      444        2     0.00000    6.29104    9.59966    6.44191
     232      444        2     0.00000    5.68083   12.07467    5.97387
     233      444        2     0.00000    6.29111    7.36435   13.06851
     234      444        2     0.00000    8.12936    7.83370   11.29485
     235      444        2     0.00000    8.12936    9.13043   13.53655
     236      444        2     0.00000    3.23216    9.13043   13.53655
     237      444        2     0.00000    5.16803   10.24803   14.84217
     238      444        2     0.00000    3.84251   11.60545   13.06851
     239      444        2     0.00000    2.71951   10.95708   15.31021
     240      444        2     0.00000    7.61656   10.95708    9.98923
     241      444        2     0.00000    5.16803   10.24803    9.52119
     242      444        2     0.00000    6.29104    9.59966   11.76289
     243      444        2     0.00000    5.68083   12.07467   11.29485

Bonds

       1        1        1       82
       2        1        1      118
       3        1        2       83
       4        1        2       88
       5        1        3       82
       6        1        3       89
       7        1        4       84
       8        1        4      121
       9        1        5       86
      10        1        5       91
      11        1        6       83
      12        1        6       84
      13        1        6       92
      14        1        6      119
      15        1        7       87
      16        1        7      125
      17        1        8       85
      18        1        8       95
      19        1        9       86
      20        1        9       87
      21        1        9       96
      22        1        9      122
      23        1       10       88
      24        1       10       89
      25        1       10       90
      26        1       10      132
      27        1       11       93
      28        1       11      100
      29        1       12       90
      30        1       12      101
      31        1       13       91
      32        1       13       92
      33        1       13       94
      34        1       13      137
      35        1       14       98
      36        1       14      105
      37        1       15       93
      38        1       15       94
      39        1       15      106
      40        1       15      133
      41        1       16       95
      42        1       16       96
      43        1       16       99
      44        1       16      143
      45        1       17       97
      46        1       17      111
      47        1       18       98
      48        1       18       99
      49        1       18      112
      50        1       18      138
      51        1       19      100
      52        1       19      101
      53        1       19      103
      54        1       19      150
      55        1       20      102
      56        1       20      108
      57        1       21      103
      58        1       21      104
      59        1       22      105
      60        1       22      106
      61        1       22      109
      62        1       22      157
      63        1       23      107
      64        1       23      115
      65        1       24      108
      66        1       24      109
      67        1       24      110
      68        1       24      152
      69        1       25      111
      70        1       25      112
      71        1       25      116
      72        1       25      165
      73        1       26      113
      74        1       26      114
      75        1       27      115
      76        1       27      116
      77        1       27      117
      78        1       27      159
      79        1       28      120
      80        1       28      173
      81        1       29      118
      82        1       29      119
      83        1       29      123
      84        1       29      130
      85        1       30      120
      86        1       30      131
      87        1       31      124
      88        1       31      178
      89        1       32      121
      90        1       32      122
      91        1       32      128
      92        1       32      135
      93        1       33      123
      94        1       33      124
      95        1       33      136
      96        1       33      174
      97        1       34      129
      98        1       34      184
      99        1       35      125
     100        1       35      126
     101        1       35      127
     102        1       35      141
     103        1       36      128
     104        1       36      129
     105        1       36      142
     106        1       36      179
     107        1       37      130
     108        1       37      131
     109        1       37      134
     110        1       37      193
     111        1       38      132
     112        1       38      133
     113        1       38      139
     114        1       38      148
     115        1       39      134
     116        1       39      149
     117        1       40      135
     118        1       40      136
     119        1       40      140
     120        1       40      200
     121        1       41      137
     122        1       41      138
     123        1       41      146
     124        1       41      155
     125        1       42      139
     126        1       42      140
     127        1       42      156
     128        1       42      194
     129        1       43      141
     130        1       43      142
     131        1       43      147
     132        1       43      208
     133        1       44      143
     134        1       44      144
     135        1       44      145
     136        1       44      163
     137        1       45      146
     138        1       45      147
     139        1       45      164
     140        1       45      201
     141        1       46      148
     142        1       46      149
     143        1       46      153
     144        1       46      217
     145        1       47      150
     146        1       47      151
     147        1       47      152
     148        1       47      160
     149        1       48      153
     150        1       48      154
     151        1       49      155
     152        1       49      156
     153        1       49      161
     154        1       49      226
     155        1       50      157
     156        1       50      158
     157        1       50      159
     158        1       50      169
     159        1       51      160
     160        1       51      161
     161        1       51      162
     162        1       51      219
     163        1       52      163
     164        1       52      164
     165        1       52      170
     166        1       52      236
     167        1       53      165
     168        1       53      166
     169        1       53      167
     170        1       53      168
     171        1       54      169
     172        1       54      170
     173        1       54      171
     174        1       54      228
     175        1       55      172
     176        1       55      176
     177        1       56      173
     178        1       56      174
     179        1       56      181
     180        1       56      190
     181        1       57      176
     182        1       57      191
     183        1       58      177
     184        1       58      182
     185        1       59      178
     186        1       59      179
     187        1       59      188
     188        1       59      197
     189        1       60      180
     190        1       60      181
     191        1       60      182
     192        1       60      198
     193        1       61      183
     194        1       61      189
     195        1       62      184
     196        1       62      185
     197        1       62      186
     198        1       62      205
     199        1       63      187
     200        1       63      188
     201        1       63      189
     202        1       63      206
     203        1       64      190
     204        1       64      191
     205        1       64      192
     206        1       64      196
     207        1       65      193
     208        1       65      194
     209        1       65      203
     210        1       65      214
     211        1       66      196
     212        1       66      215
     213        1       67      197
     214        1       67      198
     215        1       67      199
     216        1       67      204
     217        1       68      200
     218        1       68      201
     219        1       68      212
     220        1       68      223
     221        1       69      202
     222        1       69      203
     223        1       69      204
     224        1       69      224
     225        1       70      205
     226        1       70      206
     227        1       70      207
     228        1       70      213
     229        1       71      208
     230        1       71      209
     231        1       71      210
     232        1       71      233
     233        1       72      211
     234        1       72      212
     235        1       72      213
     236        1       72      234
     237        1       73      214
     238        1       73      215
     239        1       73      216
     240        1       73      221
     241        1       74      217
     242        1       74      218
     243        1       74      219
     244        1       74      230
     245        1       75      221
     246        1       75      222
     247        1       76      223
     248        1       76      224
     249        1       76      225
     250        1       76      231
     251        1       77      226
     252        1       77      227
     253        1       77      228
     254        1       77      241
     255        1       78      229
     256        1       78      230
     257        1       78      231
     258        1       78      232
     259        1       79      233
     260        1       79      234
     261        1       79      235
     262        1       79      242
     263        1       80      236
     264        1       80      237
     265        1       80      238
     266        1       80      239
     267        1       81      240
     268        1       81      241
     269        1       81      242
     270        1       81      243
     271        1       85        3
     272        1       97       12
     273        1      102        1
     274        1      104        1
     275        1      107        4
     276        1      110        4
     277        1      113       21
     278        1      114        7
     279        1      117        7
     280        1      126       30
     281        1      127        3
     282        1      144       39
     283        1      145       12
     284        1      151       28
     285        1      154       28
     286        1      158       31
     287        1      162       31
     288        1      166       48
     289        1      167       34
     290        1      168       21
     291        1      171       34
     292        1      172        2
     293        1      175        8
     294        1      175       57
     295        1      177        5
     296        1      180        2
     297        1      183        8
     298        1      185       57
     299        1      186       30
     300        1      187        5
     301        1      192       11
     302        1      195       17
     303        1      195       66
     304        1      199       14
     305        1      202       11
     306        1      207       17
     307        1      209       66
     308        1      210       39
     309        1      211       14
     310        1      216       20
     311        1      218       55
     312        1      220       26
     313        1      220       75
     314        1      222       55
     315        1      225       23
     316        1      227       58
     317        1      229       20
     318        1      232       58
     319        1      235       26
     320        1      237       75