Created on Mon Oct 06 08:38:28 2025 

         365 atoms
         390 bonds
         739 angles
         924 dihedrals

           4 atom types
           4 bond types
           9 angle types
           2 dihedral types
           0.000000  15.526412 xlo xhi
           0.000000  14.104294 ylo yhi
           0.000000  17.464155 zlo zhi
          -6.934611   2.088000   0.879508 xy xz yz

Masses

    1    28.085500000 # Si3
    2    12.010700000 # C_3
    3    15.999400000 # O_2
    4     1.007940000 # H_

Bond Coeffs

    1      226.661263        1.866919  # Si3 C_3
    2      365.702108        1.692864  # Si3 O_2
    3      172.712984        1.470529  # Si3 H_
    4      331.069389        1.109401  # C_3 H_

Angle Coeffs

    1                      fourier      157.882480        0.343737        0.374972        0.281246 # C_3 Si3 O_2
    2                      fourier      221.735285        0.343737        0.374972        0.281246 # O_2 Si3 O_2
    3                      fourier       83.380072        0.343737        0.374972        0.281246 # O_2 Si3 H_
    4                      fourier       32.417871        0.343737        0.374972        0.281246 # H_ Si3 H_
    5                      fourier      114.246973        0.343737        0.374972        0.281246 # C_3 Si3 C_3
    6                      fourier       58.020602        0.343737        0.374972        0.281246 # C_3 Si3 H_
    7                      fourier       90.420412        0.343737        0.374972        0.281246 # Si3 C_3 H_
    8                      fourier       75.498766        0.343737        0.374972        0.281246 # H_ C_3 H_
    9              cosine/periodic       88.853997              -1               3 # Si3 O_2 Si3

Dihedral Coeffs

    1        0.089508               1               3 # O_2 Si3 C_3 H_
    2        0.333333               1               3 # C_3 Si3 O_2 Si3

Pair Coeffs

    1        0.402000        3.826410 # Si3 Si3
    2        0.105000        3.430851 # C_3 C_3
    3        0.060000        3.118146 # O_2 O_2
    4        0.044000        2.571134 # H_ H_

Atoms

       1      444        1     0.00000    3.19128    1.14967    2.94275
       2      444        1     0.00000    1.88371    2.75697    0.83493
       3      444        1     0.00000    1.71907    2.21625   10.10845
       4      444        1     0.00000    2.34568    3.71717    5.79052
       5      444        1     0.00000    4.60556    1.18379   14.44530
       6      444        1     0.00000   15.74328    2.70660   15.05651
       7      444        1     0.00000    3.44433    3.07647   12.31398
       8      444        1     0.00000   -0.60163    4.53887    1.26530
       9      444        1     0.00000   -2.88245    6.84940    2.97427
      10      444        1     0.00000    1.81792    4.86868    8.59444
      11      444        1     0.00000   -0.66845    7.82451    5.13048
      12      444        1     0.00000    1.71266    5.10325   13.71493
      13      444        1     0.00000    1.17294    8.00383   12.77751
      14      444        1     0.00000   -5.34386   13.16744    4.33900
      15      444        1     0.00000   -1.90147    9.78242    7.12672
      16      444        1     0.00000   -3.40776   12.10945   10.41700
      17      444        1     0.00000   -2.71539   12.61961    6.03037
      18      444        1     0.00000   -0.19256   10.07293   14.53191
      19      444        1     0.00000   -3.37395   12.94223   16.11706
      20      444        1     0.00000   -1.87856    9.91591   11.85320
      21      444        1     0.00000    7.74729    0.15003    2.44692
      22      444        1     0.00000    5.01555    2.77635    4.73804
      23      444        1     0.00000    6.70545    2.40518    0.38605
      24      444        1     0.00000    1.59730   13.21687    8.19347
      25      444        1     0.00000    5.69300    3.64288   10.22600
      26      444        1     0.00000    7.12230    3.03539    6.82337
      27      444        1     0.00000    9.34936    0.92244   13.52501
      28      444        1     0.00000    6.16781    3.20345   16.14042
      29      444        1     0.00000    8.71565    3.08701   11.31235
      30      444        1     0.00000    6.27862    4.60315    2.54172
      31      444        1     0.00000    2.25872    7.96367    3.89519
      32      444        1     0.00000    5.12613    8.61468   16.78716
      33      444        1     0.00000    5.95571    5.74164    8.08316
      34      444        1     0.00000    2.68505    7.79646    9.37015
      35      444        1     0.00000    4.84816    7.48817    5.83163
      36      444        1     0.00000    5.20542    8.29585   11.27648
      37      444        1     0.00000    3.63289    9.64966    1.69088
      38      444        1     0.00000   -0.35530   12.03012    4.01641
      39      444        1     0.00000    4.31334   12.26415   16.96545
      40      444        1     0.00000    3.66953    9.68934    7.30774
      41      444        1     0.00000    2.46477   11.99427    5.56092
      42      444        1     0.00000    4.28405   10.64562   13.20559
      43      444        1     0.00000    1.36425   12.79190   15.22228
      44      444        1     0.00000    2.75475   12.61878   11.67575
      45      444        1     0.00000    6.05598   13.52656    1.40637
      46      444        1     0.00000   13.57086    2.71033   17.24103
      47      444        1     0.00000   10.47593    1.36743    9.27331
      48      444        1     0.00000   14.10605    3.82947    5.94012
      49      444        1     0.00000   14.21885    1.12207   12.96600
      50      444        1     0.00000   10.95323    2.80607   15.60359
      51      444        1     0.00000   14.52408    3.49473   11.19276
      52      444        1     0.00000   11.10849    4.48102    1.63639
      53      444        1     0.00000    7.56947    6.98947    4.04973
      54      444        1     0.00000    9.20952    6.27009   -0.21491
      55      444        1     0.00000   11.44335    5.18392    6.62447
      56      444        1     0.00000    7.78786    7.74081    9.58232
      57      444        1     0.00000   10.39801    7.53270    5.06904
      58      444        1     0.00000    7.20492    8.71596   14.77069
      59      444        1     0.00000    9.76746    7.12675   11.69559
      60      444        1     0.00000    8.55630    8.67029    1.64149
      61      444        1     0.00000    5.30384   12.36856    4.20175
      62      444        1     0.00000    7.49548   11.15106    0.04859
      63      444        1     0.00000    4.78594   11.97275    9.20557
      64      444        1     0.00000    7.58101   13.03422    6.19420
      65      444        1     0.00000    9.20356    9.93726   12.79082
      66      444        1     0.00000    6.02010   13.02656   14.49829
      67      444        2     0.00000   -3.15899   14.01224    1.73145
      68      444        2     0.00000    1.53128    2.28975   16.25392
      69      444        2     0.00000   -1.22742    3.08779    2.23588
      70      444        2     0.00000   -1.51583    5.07604   -0.27827
      71      444        2     0.00000   -0.21301    6.78696    6.57925
      72      444        2     0.00000    2.99700    5.56443   14.95557
      73      444        2     0.00000   -2.99348    8.76581    8.24355
      74      444        2     0.00000   -0.29349   10.08870    7.99668
      75      444        2     0.00000   -3.12438   13.99353    7.21130
      76      444        2     0.00000   -0.83489    9.37877   16.11933
      77      444        2     0.00000   -1.74895   12.68844   16.97993
      78      444        2     0.00000   -1.62357   14.30051   13.05859
      79      444        2     0.00000    8.02108    0.95470    4.08455
      80      444        2     0.00000   -0.18833   13.66560    8.14104
      81      444        2     0.00000    8.52076    3.52271    5.75636
      82      444        2     0.00000    6.80767    4.28222   14.78854
      83      444        2     0.00000    1.83384    6.62914    2.71653
      84      444        2     0.00000    4.73119    5.50941    2.25132
      85      444        2     0.00000    5.57894    6.82458   16.70853
      86      444        2     0.00000    3.25763    8.75019   16.83281
      87      444        2     0.00000    5.07399    6.80790   12.36742
      88      444        2     0.00000    2.45432   13.80513    1.77404
      89      444        2     0.00000    0.95087   12.69238   11.28008
      90      444        2     0.00000    7.66136   14.07090    2.09434
      91      444        2     0.00000   13.47022    2.17865    5.39412
      92      444        2     0.00000   11.67004    4.10794   14.50939
      93      444        2     0.00000   12.04162    0.93397   10.16218
      94      444        2     0.00000   13.40270    4.03520    9.82535
      95      444        2     0.00000    9.98405    3.79329    2.90031
      96      444        2     0.00000   10.94412    1.92005    7.57647
      97      444        2     0.00000   10.50299    5.16157    8.21306
      98      444        2     0.00000   10.10885    9.29441    5.53418
      99      444        2     0.00000    8.54940    8.45722   16.01529
     100      444        2     0.00000   11.48830    6.51928   11.37922
     101      444        2     0.00000    9.21032    6.46482   13.33392
     102      444        2     0.00000   10.34837    9.11288    1.51627
     103      444        2     0.00000   -5.73564   11.87439    3.07643
     104      444        2     0.00000    5.99778   10.66073    4.20909
     105      444        2     0.00000    6.54737   11.74602    9.70696
     106      444        2     0.00000    9.10315   11.52583   11.84003
     107      444        2     0.00000   -3.78093   11.68257   14.84038
     108      444        2     0.00000    7.78177   12.61170   14.76510
     109      444        3     0.00000    2.79263    2.58294    2.20429
     110      444        3     0.00000    2.69153    1.93789   11.40460
     111      444        3     0.00000    3.77635    2.46576   13.79074
     112      444        3     0.00000    0.97646    4.10921    0.87113
     113      444        3     0.00000    2.36677    3.49808    9.30970
     114      444        3     0.00000    2.23011    4.78858    7.02159
     115      444        3     0.00000   -1.59955    7.02649    3.99704
     116      444        3     0.00000    0.56379    4.07807   14.24034
     117      444        3     0.00000    2.46820    4.37707   12.43970
     118      444        3     0.00000    0.92152    6.44250   13.19555
     119      444        3     0.00000    1.86077    0.57304    3.72935
     120      444        3     0.00000   -1.58907    9.08741    5.64800
     121      444        3     0.00000   -3.96147   12.58171    4.97439
     122      444        3     0.00000   -2.69892   11.19346    6.83566
     123      444        3     0.00000    0.99692    9.05172   14.03037
     124      444        3     0.00000   -3.37446   14.40523   15.34624
     125      444        3     0.00000   -3.13605   10.94164   11.56429
     126      444        3     0.00000   -1.37426   10.10843   13.39941
     127      444        3     0.00000    4.33482    1.46106    4.07521
     128      444        3     0.00000    3.85931    3.84573    5.16162
     129      444        3     0.00000    7.02759    1.17383    1.37226
     130      444        3     0.00000    4.82733    3.55226   11.60561
     131      444        3     0.00000    5.85557    2.29960    6.05407
     132      444        3     0.00000    5.74965    1.76132   15.47263
     133      444        3     0.00000    7.28755    3.01181   17.31016
     134      444        3     0.00000    4.86186    3.78047   16.94137
     135      444        3     0.00000    7.24768    3.39891   10.66749
     136      444        3     0.00000    8.59854    2.05233   12.59572
     137      444        3     0.00000    6.04266    3.46595    3.69501
     138      444        3     0.00000    6.84239    3.82880    1.20304
     139      444        3     0.00000    0.79658    8.36690    4.56235
     140      444        3     0.00000    5.42367    5.11673    9.51812
     141      444        3     0.00000    6.61524    4.50161    7.31463
     142      444        3     0.00000    2.50371    6.18206    9.25817
     143      444        3     0.00000    3.45179    7.45064    4.95722
     144      444        3     0.00000    4.84366    6.39488    7.06649
     145      444        3     0.00000    4.08913    8.13655   10.09241
     146      444        3     0.00000    2.83972    9.29182    3.08979
     147      444        3     0.00000    3.65718    8.33269    0.72873
     148      444        3     0.00000   -0.21775   12.96777    2.67862
     149      444        3     0.00000   -1.31636   12.72851    5.16026
     150      444        3     0.00000    2.94230   10.90415    0.90389
     151      444        3     0.00000    2.69399    8.51412    7.89790
     152      444        3     0.00000    4.92070    8.97462    6.52394
     153      444        3     0.00000    1.14454   11.80635    4.64225
     154      444        3     0.00000    2.77613   10.55807    6.26827
     155      444        3     0.00000    2.20276   13.16615    6.66191
     156      444        3     0.00000    4.98278    9.71456   12.05804
     157      444        3     0.00000    0.36025   11.61228   14.66710
     158      444        3     0.00000    1.25608   14.16860   14.31839
     159      444        3     0.00000    2.89042   11.29882   12.64270
     160      444        3     0.00000    3.19084   13.98726   12.52016
     161      444        3     0.00000   14.38143    3.06013   15.88225
     162      444        3     0.00000   12.16375    0.56748    0.56385
     163      444        3     0.00000    2.39373   14.31330    9.10371
     164      444        3     0.00000    9.72810    2.54362   10.17009
     165      444        3     0.00000   15.43896    1.48021   14.00878
     166      444        3     0.00000   10.33249    1.60302   14.64343
     167      444        3     0.00000   12.07191    2.30648   16.71802
     168      444        3     0.00000    9.74022    3.39980   16.53339
     169      444        3     0.00000    0.19550    2.55048   10.55671
     170      444        3     0.00000   13.72517    2.54073   12.29319
     171      444        3     0.00000   11.55425    3.17694    0.71966
     172      444        3     0.00000   12.34544    5.30469    2.41383
     173      444        3     0.00000    7.40896    5.64472    3.13387
     174      444        3     0.00000    6.19269    7.24946    4.90837
     175      444        3     0.00000   10.43936    5.59993    0.63865
     176      444        3     0.00000   13.01517    4.73324    6.80830
     177      444        3     0.00000    7.07598    6.88034    8.38767
     178      444        3     0.00000    6.66503    8.42673   10.54512
     179      444        3     0.00000   11.23131    7.34519    3.65787
     180      444        3     0.00000    8.90694    6.79208    4.98048
     181      444        3     0.00000   11.31768    6.76990    6.18093
     182      444        3     0.00000    5.91063    9.41613   15.54287
     183      444        3     0.00000    8.73747    6.72289   10.45563
     184      444        3     0.00000    7.89662    8.27624    3.09381
     185      444        3     0.00000    8.35770    7.35200    0.68210
     186      444        3     0.00000    5.21119   13.05731    2.72273
     187      444        3     0.00000    3.75636   12.46610    4.71258
     188      444        3     0.00000   10.94147   12.92507   17.26138
     189      444        3     0.00000    7.68610    9.99475    1.19713
     190      444        3     0.00000    6.29784   12.18941    0.46009
     191      444        3     0.00000    4.25609   10.58305    8.51264
     192      444        3     0.00000    3.84722   12.35411   10.49245
     193      444        3     0.00000    9.00834   13.36553    5.46497
     194      444        3     0.00000    6.28898   13.25218    5.19759
     195      444        3     0.00000    7.73548    9.60598   13.49207
     196      444        3     0.00000    9.69027    8.77580   11.73445
     197      444        3     0.00000    5.28901   11.88476   13.57794
     198      444        3     0.00000    6.02088   14.50073   13.73090
     199      444        3     0.00000    5.26162   13.15352   15.95464
     200      444        4     0.00000    1.71205    1.00828    9.26686
     201      444        4     0.00000    1.37795    4.10036    4.73516
     202      444        4     0.00000    2.10763    2.33440    6.28126
     203      444        4     0.00000    1.08760    1.52629    0.75335
     204      444        4     0.00000   -2.59161    7.69263    1.79872
     205      444        4     0.00000    0.35764    4.95404    8.77237
     206      444        4     0.00000    0.15049    8.31716   11.75132
     207      444        4     0.00000   -4.32070   11.59323    9.36241
     208      444        4     0.00000   -2.09494   12.47571    9.82380
     209      444        4     0.00000   -4.00748   13.30669   11.05911
     210      444        4     0.00000   -0.78897   10.25670   10.90633
     211      444        4     0.00000   -2.35005    8.52852   11.68439
     212      444        4     0.00000    1.84631   11.87480    8.76178
     213      444        4     0.00000    5.29312    2.56973    9.29423
     214      444        4     0.00000    7.47355    2.18961    7.98323
     215      444        4     0.00000    9.27463    4.34104   11.81270
     216      444        4     0.00000   -0.51692    5.73004    2.12944
     217      444        4     0.00000    1.52818    8.33749   10.10298
     218      444        4     0.00000    2.56408    8.16136   12.30376
     219      444        4     0.00000   -0.92279   10.74167    3.58665
     220      444        4     0.00000    1.06329   12.20494   -0.10295
     221      444        4     0.00000    3.87876    9.81579   14.33334
     222      444        4     0.00000    2.75061   12.30400   15.09724
     223      444        4     0.00000    3.92937   11.03556   16.25064
     224      444        4     0.00000    0.99088   13.10959   16.61522
     225      444        4     0.00000   -0.95712    4.60612    4.76581
     226      444        4     0.00000   -0.27098    3.58002    6.86065
     227      444        4     0.00000    7.82714   14.31622   11.93928
     228      444        4     0.00000   -0.42903    4.66470   11.88960
     229      444        4     0.00000   10.37315    6.08993   16.79596
     230      444        4     0.00000   10.96026    4.36591    5.49094
     231      444        4     0.00000    8.57928    8.80290    8.93009
     232      444        4     0.00000    6.68534    7.45253   14.22412
     233      444        4     0.00000   11.91774    7.85770   16.09264
     234      444        4     0.00000    5.01951   10.00752    1.97818
     235      444        4     0.00000    4.63818   13.01570    8.15503
     236      444        4     0.00000    7.44415   13.97269    7.33756
     237      444        4     0.00000    7.61641   11.62357    6.66876
     238      444        4     0.00000   10.18994    9.91543   13.89041
     239      444        4     0.00000    9.26390   11.27524   16.30534
     240      444        4     0.00000   -3.92379   13.91112    0.95222
     241      444        4     0.00000   -3.01598   13.03366    2.20651
     242      444        4     0.00000    4.71864    0.19236    1.25676
     243      444        4     0.00000    2.52230    2.54763   15.87518
     244      444        4     0.00000   17.06819    1.23086   16.52919
     245      444        4     0.00000    1.34126    2.88073   17.15647
     246      444        4     0.00000   -0.38714    2.68233    2.81639
     247      444        4     0.00000   13.91143    2.29480    1.59331
     248      444        4     0.00000   13.51181    3.37327    2.93457
     249      444        4     0.00000   -2.42699    5.61278    0.01217
     250      444        4     0.00000    0.27553    5.14566   16.51239
     251      444        4     0.00000    1.18632    6.66812   16.62076
     252      444        4     0.00000    0.33462    5.89456    6.26303
     253      444        4     0.00000   -1.06558    6.48341    7.19219
     254      444        4     0.00000    0.48673    7.38531    7.17840
     255      444        4     0.00000    3.07653    6.65590   15.03390
     256      444        4     0.00000    3.96925    5.17465   14.63830
     257      444        4     0.00000    2.80880    5.17584   15.95869
     258      444        4     0.00000   -2.53238    7.79024    8.45342
     259      444        4     0.00000   11.53113    8.58702    7.84221
     260      444        4     0.00000   -3.10549    9.29542    9.20181
     261      444        4     0.00000    0.47448   10.48832    7.32490
     262      444        4     0.00000    0.09934    9.15380    8.41537
     263      444        4     0.00000   -0.42809   10.77810    8.83871
     264      444        4     0.00000    4.21079    0.85582    6.88961
     265      444        4     0.00000   -2.76502   13.81007    8.22843
     266      444        4     0.00000   -4.22129   14.06959    7.24209
     267      444        4     0.00000   -0.14168    9.55962   16.95366
     268      444        4     0.00000   -0.93797    8.29079   16.00248
     269      444        4     0.00000   -1.81603    9.78005   16.39214
     270      444        4     0.00000   -1.24329   11.80006   16.59358
     271      444        4     0.00000   -3.94045   11.68451    0.59796
     272      444        4     0.00000   -1.08396   13.54227   16.81201
     273      444        4     0.00000   -2.42103   14.09278   12.33116
     274      444        4     0.00000   -1.20834   13.34683   13.40440
     275      444        4     0.00000    6.11270    0.75210   12.55619
     276      444        4     0.00000    8.02092    2.03597    3.94639
     277      444        4     0.00000    9.00269    0.66184    4.48156
     278      444        4     0.00000    7.25929    0.70695    4.83081
     279      444        4     0.00000   -0.49777   14.25531    9.01225
     280      444        4     0.00000   -0.79519   12.75443    8.11517
     281      444        4     0.00000   -0.41196   14.24177    7.23739
     282      444        4     0.00000    8.11644    4.02512    4.87383
     283      444        4     0.00000    9.22034    2.75374    5.43781
     284      444        4     0.00000    9.04757    4.28577    6.33381
     285      444        4     0.00000    7.57131    3.70573   14.24761
     286      444        4     0.00000    7.27274    5.19955   15.16301
     287      444        4     0.00000    6.02956    4.54890   14.06140
     288      444        4     0.00000    1.58787    5.69077    3.22916
     289      444        4     0.00000    2.60478    6.42869    1.97745
     290      444        4     0.00000    0.93235    6.96667    2.19345
     291      444        4     0.00000    4.35406    5.83378    3.22865
     292      444        4     0.00000    3.97904    4.84631    1.81318
     293      444        4     0.00000    4.85775    6.39403    1.61867
     294      444        4     0.00000    5.35865    6.41462   15.71931
     295      444        4     0.00000    4.96538    6.26832   17.42407
     296      444        4     0.00000    6.63390    6.63206   16.93314
     297      444        4     0.00000    2.88967    7.79367   17.22940
     298      444        4     0.00000    2.78627    8.91899   15.85661
     299      444        4     0.00000    0.83044    8.66041    0.05166
     300      444        4     0.00000    6.03377    6.28393   12.45311
     301      444        4     0.00000    4.34915    6.11240   11.92931
     302      444        4     0.00000    4.73896    7.07505   13.37494
     303      444        4     0.00000    2.49749   13.75172    0.68432
     304      444        4     0.00000    2.82274   12.87439    2.20888
     305      444        4     0.00000   10.08193    0.49230    2.09133
     306      444        4     0.00000    0.41867   12.49900   12.21972
     307      444        4     0.00000    0.65789   11.90866   10.57275
     308      444        4     0.00000    0.62465   13.66442   10.89886
     309      444        4     0.00000   15.33057    0.36862    1.39511
     310      444        4     0.00000    8.07805   13.15864    2.52677
     311      444        4     0.00000   14.44557    0.66770    2.91774
     312      444        4     0.00000   13.24663    1.53169    6.24604
     313      444        4     0.00000   14.27046    1.69766    4.81375
     314      444        4     0.00000   12.57546    2.22612    4.76026
     315      444        4     0.00000   10.95486    4.40467   13.73467
     316      444        4     0.00000   12.56344    3.72273   14.00458
     317      444        4     0.00000   11.95666    5.00368   15.07696
     318      444        4     0.00000   12.47663    1.89300   10.45217
     319      444        4     0.00000   12.76066    0.44507    9.49186
     320      444        4     0.00000   11.91957    0.34892   11.07587
     321      444        4     0.00000   12.34670    4.02311   10.11517
     322      444        4     0.00000   13.52496    3.39086    8.94762
     323      444        4     0.00000   13.65460    5.05885    9.51866
     324      444        4     0.00000   10.50790    3.00894    3.46409
     325      444        4     0.00000    9.10956    3.34107    2.41683
     326      444        4     0.00000    9.64331    4.55768    3.60085
     327      444        4     0.00000   11.20199    1.02053    6.99820
     328      444        4     0.00000   11.81897    2.57771    7.59830
     329      444        4     0.00000   10.13322    2.42744    7.05349
     330      444        4     0.00000   11.00087    5.87685    8.88030
     331      444        4     0.00000   10.41179    4.20880    8.73602
     332      444        4     0.00000    9.49323    5.55786    8.03751
     333      444        4     0.00000   11.01553    9.90999    5.51202
     334      444        4     0.00000    9.69270    9.33355    6.55218
     335      444        4     0.00000    9.36379    9.74055    4.86382
     336      444        4     0.00000    9.52370    8.80253   15.64711
     337      444        4     0.00000    8.63530    7.39333   16.27125
     338      444        4     0.00000    8.32849    8.99944   16.94173
     339      444        4     0.00000   11.97111    6.96640   10.50193
     340      444        4     0.00000   11.45748    5.43004   11.25039
     341      444        4     0.00000   12.11406    6.72572   12.25991
     342      444        4     0.00000    9.35018    5.38664   13.43364
     343      444        4     0.00000    8.14698    6.66192   13.50353
     344      444        4     0.00000    9.79225    6.94520   14.13388
     345      444        4     0.00000   10.44205    9.95638    0.82316
     346      444        4     0.00000   10.91494    8.26988    1.10756
     347      444        4     0.00000   10.82601    9.39351    2.45511
     348      444        4     0.00000   -4.94557   11.12619    3.18489
     349      444        4     0.00000   -5.71592   12.23798    2.04437
     350      444        4     0.00000    8.83051   11.36978    3.23939
     351      444        4     0.00000    6.49986   10.45691    5.16302
     352      444        4     0.00000    6.72111   10.52778    3.39634
     353      444        4     0.00000    5.22376    9.90127    4.08202
     354      444        4     0.00000    7.13380   11.36084    8.86075
     355      444        4     0.00000    6.60845   11.01361   10.51985
     356      444        4     0.00000    7.00082   12.68673   10.04351
     357      444        4     0.00000    8.10089   11.95953   11.89894
     358      444        4     0.00000    9.32286   11.33341   10.78143
     359      444        4     0.00000    9.81923   12.27041   12.21246
     360      444        4     0.00000   11.69935   10.65857   15.23484
     361      444        4     0.00000   -3.05842   11.68850   14.01853
     362      444        4     0.00000   10.76202   11.92439   14.41919
     363      444        4     0.00000    8.37703   12.72221   13.85426
     364      444        4     0.00000    7.86939   11.58261   15.11437
     365      444        4     0.00000    8.19198   13.28740   15.52232

Bonds

       1        1        1       67
       2        2        1      109
       3        2        1      119
       4        2        1      127
       5        2        2      109
       6        2        2      112
       7        2        2      134
       8        3        2      203
       9        2        3      110
      10        2        3      113
      11        2        3      169
      12        3        3      200
      13        2        4      114
      14        2        4      128
      15        3        4      201
      16        3        4      202
      17        1        5       78
      18        2        5      111
      19        2        5      124
      20        2        5      132
      21        1        6       68
      22        2        6      116
      23        2        6      161
      24        2        6      165
      25        2        7      110
      26        2        7      111
      27        2        7      117
      28        2        7      130
      29        1        8       69
      30        1        8       70
      31        2        8      112
      32        3        8      216
      33        2        9      115
      34        2        9      172
      35        2        9      179
      36        3        9      204
      37        2       10      113
      38        2       10      114
      39        2       10      142
      40        3       10      205
      41        1       11       71
      42        2       11      115
      43        2       11      120
      44        2       11      139