Created on Sun Oct 05 23:43:38 2025 

         366 atoms
         408 bonds
         792 angles
        1080 dihedrals

           4 atom types
           3 bond types
           6 angle types
           2 dihedral types
           0.000000  15.037150 xlo xhi
           0.000000  13.454262 ylo yhi
           0.000000  17.607396 zlo zhi
          -7.493115  -0.158529   0.080717 xy xz yz

Masses

    1    28.085500000 # Si3
    2    15.999400000 # O_2
    3    12.010700000 # C_3
    4     1.007940000 # H_

Bond Coeffs

    1      365.702108        1.692864  # Si3 O_2
    2      226.661263        1.866919  # Si3 C_3
    3      331.069389        1.109401  # C_3 H_

Angle Coeffs

    1                      fourier      221.735285        0.343737        0.374972        0.281246 # O_2 Si3 O_2
    2                      fourier      157.882480        0.343737        0.374972        0.281246 # O_2 Si3 C_3
    3                      fourier      114.246973        0.343737        0.374972        0.281246 # C_3 Si3 C_3
    4              cosine/periodic       88.853997              -1               3 # Si3 O_2 Si3
    5                      fourier       90.420412        0.343737        0.374972        0.281246 # Si3 C_3 H_
    6                      fourier       75.498766        0.343737        0.374972        0.281246 # H_ C_3 H_

Dihedral Coeffs

    1        0.333333               1               3 # O_2 Si3 O_2 Si3
    2        0.089508               1               3 # O_2 Si3 C_3 H_

Pair Coeffs

    1        0.402000        3.826410 # Si3 Si3
    2        0.060000        3.118146 # O_2 O_2
    3        0.105000        3.430851 # C_3 C_3
    4        0.044000        2.571134 # H_ H_

Atoms

       1      444        1     0.00000    2.28811    0.03533    2.39568
       2      444        1     0.00000   13.62231    2.03535    3.60969
       3      444        1     0.00000    1.05972    2.18608    0.58478
       4      444        1     0.00000   -5.35856   13.11899    7.60588
       5      444        1     0.00000    0.85119    1.65933    5.63169
       6      444        1     0.00000   -1.33488    2.35809   16.01215
       7      444        1     0.00000    0.24425    4.40875    2.42413
       8      444        1     0.00000   -3.77844    6.94262    3.90117
       9      444        1     0.00000   -1.04878    6.60669    0.47337
      10      444        1     0.00000   -0.12688    4.28397    7.16750
      11      444        1     0.00000   -3.93632    6.60899    9.65068
      12      444        1     0.00000   -1.06349    6.78258    5.50420
      13      444        1     0.00000   -0.44970    4.61288   14.03267
      14      444        1     0.00000   -1.39477    6.28006   11.61840
      15      444        1     0.00000   -2.58263    8.99834    2.03186
      16      444        1     0.00000    8.71528   11.25164    4.13899
      17      444        1     0.00000   -4.07597   11.29487    0.34150
      18      444        1     0.00000   -2.48742    8.68041    7.68644
      19      444        1     0.00000    8.87213   10.74909    9.51122
      20      444        1     0.00000   -3.81878   11.00641    5.93005
      21      444        1     0.00000    8.55639   10.93567   15.88391
      22      444        1     0.00000   -3.76314   11.26298   10.95354
      23      444        1     0.00000   -0.10599   13.36833    2.15506
      24      444        1     0.00000    3.67090    2.03061    4.25617
      25      444        1     0.00000    6.82462    2.01119    0.15461
      26      444        1     0.00000    0.27540   12.93739    7.49218
      27      444        1     0.00000    3.68054    2.00179    9.29065
      28      444        1     0.00000    6.23847    1.82415    5.89219
      29      444        1     0.00000    6.21304    0.01603   13.49264
      30      444        1     0.00000    1.63491    6.37743    4.21229
      31      444        1     0.00000    3.46363    7.16291   17.23824
      32      444        1     0.00000    5.28986    4.15776    7.76252
      33      444        1     0.00000    4.09189    6.63843    6.10117
      34      444        1     0.00000    4.96715    5.17984   13.93890
      35      444        1     0.00000    0.81228    7.05891   15.59293
      36      444        1     0.00000    2.70908    8.54106    2.28106
      37      444        1     0.00000   -1.34392   11.14405    4.02163
      38      444        1     0.00000    0.63739   11.71205   17.30261
      39      444        1     0.00000    2.42510    8.83960    7.54315
      40      444        1     0.00000   -1.17422   10.91582    9.35923
      41      444        1     0.00000    1.46716   11.00180    5.49581
      42      444        1     0.00000    1.47311    9.45694   13.82733
      43      444        1     0.00000   -2.06152   11.65030   15.83556
      44      444        1     0.00000    0.37048   11.52445   11.92172
      45      444        1     0.00000    5.09561   13.00206    1.93963
      46      444        1     0.00000    8.63101    2.15358    3.97584
      47      444        1     0.00000   12.67319    0.26105    7.69125
      48      444        1     0.00000   11.25262    2.40701    5.72048
      49      444        1     0.00000   10.67999    2.89912   12.13077
      50      444        1     0.00000    9.86977    4.55354    2.31298
      51      444        1     0.00000    6.35720    7.23671    3.99389
      52      444        1     0.00000    8.74030    6.90595    0.50938
      53      444        1     0.00000    9.95785    4.58262    7.46478
      54      444        1     0.00000    6.13101    6.46869    9.45741
      55      444        1     0.00000    8.84123    6.97566    5.72052
      56      444        1     0.00000    9.98622    5.42129   13.64700
      57      444        1     0.00000    6.22994    7.02162   15.88698
      58      444        1     0.00000    8.57283    7.01486   11.52497
      59      444        1     0.00000    7.48676    9.26033    2.21031
      60      444        1     0.00000    4.03145   10.79697    3.91301
      61      444        1     0.00000    6.03549   10.91927   -0.03178
      62      444        1     0.00000    7.31730    8.80368    7.71331
      63      444        1     0.00000    6.10481   11.12377    6.03039
      64      444        1     0.00000    7.66792    9.02054   13.82753
      65      444        1     0.00000    3.29055   11.20161   15.84046
      66      444        1     0.00000    6.73456   11.09118   11.77792
      67      444        2     0.00000    1.15202    0.86574    1.56114
      68      444        2     0.00000   -0.20973    1.34213    4.44419
      69      444        2     0.00000    1.11343    0.30741    6.51130
      70      444        2     0.00000   -0.55856    2.43713   17.47488
      71      444        2     0.00000   -0.96550    3.43728    2.89992
      72      444        2     0.00000    1.26269    3.53926    1.49959
      73      444        2     0.00000   -0.30248    5.72583    1.63550
      74      444        2     0.00000    0.13041    2.80822    6.50167
      75      444        2     0.00000   -2.24234    6.73637    4.38760
      76      444        2     0.00000   -0.83104    5.28896    6.06573
      77      444        2     0.00000   -1.26038    3.80145   15.19957
      78      444        2     0.00000   -2.78657    6.14429   10.71371
      79      444        2     0.00000   -1.46928    5.45734   13.06187
      80      444        2     0.00000   -3.73711    8.10237    2.74973
      81      444        2     0.00000   -1.61393    7.99431    1.16911
      82      444        2     0.00000   -5.90412   12.74861    3.66232
      83      444        2     0.00000   -3.27486   10.05728    1.02192
      84      444        2     0.00000   -4.48197   12.40515    1.43419
      85      444        2     0.00000   -3.43994    7.71334    8.56941
      86      444        2     0.00000   -1.51910    7.82176    6.68303
      87      444        2     0.00000   -6.23260   12.05911    8.51696
      88      444        2     0.00000   -5.10566   10.60160    5.01358
      89      444        2     0.00000   -3.38229    9.71893    6.82065
      90      444        2     0.00000   -4.17146   12.26982    6.89118
      91      444        2     0.00000   -5.56905   10.75648   17.23414
      92      444        2     0.00000   -4.63053   10.39291    9.84967
      93      444        2     0.00000    3.43856    1.02110    2.98532
      94      444        2     0.00000    2.26681    2.20030    5.06875
      95      444        2     0.00000    6.40540    0.87460    1.30701
      96      444        2     0.00000    2.78457    0.88824    8.45671
      97      444        2     0.00000    4.78375    1.41086    5.30395
      98      444        2     0.00000    6.89066    0.51035    6.58075
      99      444        2     0.00000    1.08298    4.93005    3.71317
     100      444        2     0.00000    0.36137    7.24133    4.80737
     101      444        2     0.00000    4.02887    3.36511    8.41155
     102      444        2     0.00000    6.16283    3.05848    6.95314
     103      444        2     0.00000    2.77037    6.10186    5.32351
     104      444        2     0.00000    4.72131    5.31252    6.78718
     105      444        2     0.00000    0.56532    5.66708   14.79155
     106      444        2     0.00000    2.36379    7.21218   16.02139
     107      444        2     0.00000   -0.13338    7.10678   16.91657
     108      444        2     0.00000    2.44714    7.08806    3.00062
     109      444        2     0.00000    3.24168    8.18350    0.77828
     110      444        2     0.00000   -1.71540    9.83255    3.12206
     111      444        2     0.00000   -1.03268   12.45326    3.12232
     112      444        2     0.00000   -2.60123   11.48417    4.97530
     113      444        2     0.00000    0.72736   12.37574    1.15526
     114      444        2     0.00000    3.58881    7.74213    7.16107
     115      444        2     0.00000   -1.55192    9.44581    8.77977
     116      444        2     0.00000   -0.72462   11.77357    8.05994
     117      444        2     0.00000   -2.41875   11.63607   10.08576
     118      444        2     0.00000   -0.04577   10.81241    4.93123
     119      444        2     0.00000    1.88451    9.58570    6.17439
     120      444        2     0.00000    1.43953   12.22945    6.57436
     121      444        2     0.00000    0.55055    8.29423   14.54771
     122      444        2     0.00000   -0.65804   12.23702   16.45515
     123      444        2     0.00000   -2.19505   12.43949   14.41280
     124      444        2     0.00000   -3.28691   12.10791   16.84126
     125      444        2     0.00000    0.01029   10.75318   10.49617
     126      444        2     0.00000    0.38141   10.58220   13.28929
     127      444        2     0.00000   -0.80760   12.63318   12.14025
     128      444        2     0.00000   13.23129    0.94392    2.47836
     129      444        2     0.00000    8.45628    0.82295    3.02763
     130      444        2     0.00000    7.20925    2.37339    4.71713
     131      444        2     0.00000   12.34951    2.45882    4.52753
     132      444        2     0.00000    9.83987    1.89373    5.04753
     133      444        2     0.00000   11.76802    1.38266    6.87189
     134      444        2     0.00000    8.87998    3.53629    3.14623
     135      444        2     0.00000   10.66626    5.55138    3.33220
     136      444        2     0.00000    5.23493    7.30609    5.17654
     137      444        2     0.00000    8.98116    5.46826    1.27428
     138      444        2     0.00000   11.02747    3.89362    6.39513
     139      444        2     0.00000   10.68556    5.32229    8.74205
     140      444        2     0.00000    6.25567    4.92268    8.86103
     141      444        2     0.00000   10.28477    7.42589    5.10715
     142      444        2     0.00000    7.75160    6.57652    4.57710
     143      444        2     0.00000    9.05086    5.69341    6.68703
     144      444        2     0.00000   10.94733    4.28173   12.98876
     145      444        2     0.00000    5.93823    5.54668   15.25593
     146      444        2     0.00000    7.34536    6.83149   17.04665
     147      444        2     0.00000    4.88765    7.63581   16.57242
     148      444        2     0.00000    9.83991    7.20937   10.51232
     149      444        2     0.00000    7.23166    6.71891   10.64716
     150      444        2     0.00000    8.80929    5.75727   12.51977
     151      444        2     0.00000    6.66327    8.78140    3.53160
     152      444        2     0.00000    8.34706    8.01132    1.64129
     153      444        2     0.00000    8.49035   10.42309    2.74822
     154      444        2     0.00000    3.86418    9.44497    3.01643
     155      444        2     0.00000    4.95622   11.90002    3.15472
     156      444        2     0.00000    2.54127   11.37671    4.31497
     157      444        2     0.00000    6.98165   11.07271   16.35602
     158      444        2     0.00000    6.48543    9.76828    1.02841
     159      444        2     0.00000    6.04403   12.36450    0.74400
     160      444        2     0.00000    6.42100    7.57135    8.28011
     161      444        2     0.00000    8.28106    8.26659    6.53134
     162      444        2     0.00000    8.22817    9.39564    8.91105
     163      444        2     0.00000    7.38464   11.29563    5.05297
     164      444        2     0.00000    4.81723   10.46356    5.28963
     165      444        2     0.00000    6.41171   10.05752    7.22680
     166      444        2     0.00000    5.69878   12.57434    6.62307
     167      444        2     0.00000    6.69676    8.00669   14.65502
     168      444        2     0.00000    8.34861    8.31604   12.51131
     169      444        2     0.00000    8.74036    9.57741   14.94060
     170      444        2     0.00000    2.54410   10.03019   14.94047
     171      444        2     0.00000    4.36976   10.66732   16.98908
     172      444        2     0.00000    2.06783   12.07105   16.54155
     173      444        2     0.00000    8.12610   11.09436   10.91160
     174      444        2     0.00000    6.90838   10.35194   13.25802
     175      444        3     0.00000    2.29384    2.18799   17.00616
     176      444        3     0.00000   11.92399    1.99722   16.35629
     177      444        3     0.00000   -0.47192    1.04438   15.05445
     178      444        3     0.00000   -2.52494    5.68056   17.30922
     179      444        3     0.00000   -1.39729    4.05213    8.45986
     180      444        3     0.00000    1.53643    4.84489    7.72496
     181      444        3     0.00000    0.53703    3.40735   13.04361
     182      444        3     0.00000   -1.12461    8.07714   11.91061
     183      444        3     0.00000    0.07545    5.61059   10.70972
     184      444        3     0.00000   -5.79639   12.30718   14.86170
     185      444        3     0.00000   -3.53259   10.17504   12.41962
     186      444        3     0.00000   -4.60552   12.84360   11.42327
     187      444        3     0.00000    4.26769    3.64398    3.65406
     188      444        3     0.00000    6.42246    3.65627    0.85871
     189      444        3     0.00000    5.63959    1.85143   16.25480
     190      444        3     0.00000    8.48078    1.97095   17.37567
     191      444        3     0.00000    8.52746    0.28576    8.94715
     192      444        3     0.00000    5.34718    1.30441    9.67544
     193      444        3     0.00000    2.61951    2.65838   10.66316
     194      444        3     0.00000    5.03218    1.37954   13.08134
     195      444        3     0.00000    7.83894    0.59328   14.19367
     196      444        3     0.00000    3.56066    5.34097    0.20558
     197      444        3     0.00000    3.56898    4.07838   14.45742
     198      444        3     0.00000    5.99751    4.38424   12.62209
     199      444        3     0.00000    4.21257    6.74382   13.30999
     200      444        3     0.00000    1.10518    9.35989    2.49731
     201      444        3     0.00000    0.47666    9.90858   17.29550
     202      444        3     0.00000    1.12056    8.02410    8.55966
     203      444        3     0.00000    3.19157   10.03250    8.68048
     204      444        3     0.00000    2.34282    8.87546   12.29283
     205      444        3     0.00000   -2.24533    9.82820   15.57399
     206      444        3     0.00000    2.08759   12.20820   11.75280
     207      444        3     0.00000    3.41505   13.27836    1.35195
     208      444        3     0.00000   14.08607    0.90577    8.70464
     209      444        3     0.00000    4.08336   12.95661    8.95896
     210      444        3     0.00000   11.83216    2.89305   10.69528
     211      444        3     0.00000    8.89440    2.76578   11.60801
     212      444        3     0.00000   11.17833    1.48529   13.20745
     213      444        3     0.00000   11.10351    3.49514    1.46083
     214      444        3     0.00000    5.71324    6.30468    2.56767
     215      444        3     0.00000   10.03019    7.54042   17.15223
     216      444        3     0.00000    8.95826    3.25450    8.20272
     217      444        3     0.00000    4.39144    6.58610   10.05909
     218      444        3     0.00000    9.18053    4.65703   15.12917
     219      444        3     0.00000   -4.06607    6.96598   13.93303
     220      444        3     0.00000    4.34951   12.14373   14.69068
     221      444        3     0.00000    5.49079   10.07940   10.88125
     222      444        3     0.00000    6.34797   12.88535   12.00726
     223      444        4     0.00000    2.48870    1.16909   16.65190
     224      444        4     0.00000    3.18239    2.52623   17.55375
     225      444        4     0.00000    2.15322    2.85232   16.14845
     226      444        4     0.00000   11.62750    1.01769   15.96973
     227      444        4     0.00000   11.26131    2.74440   15.90605
     228      444        4     0.00000   11.77224    1.98840   17.43572
     229      444        4     0.00000    0.59573    1.27003   14.98083
     230      444        4     0.00000   -0.85719    0.92434   14.03892
     231      444        4     0.00000   14.46317    0.08629   15.57966
     232      444        4     0.00000   -2.16073    4.65451   17.22591
     233      444        4     0.00000   -2.75513    6.03565   16.30100
     234      444        4     0.00000   -3.28308    5.59703    0.29050
     235      444        4     0.00000   -1.01543    3.49445    9.31495
     236      444        4     0.00000   12.79832    3.49463    8.03910
     237      444        4     0.00000   -1.77536    5.01232    8.81713
     238      444        4     0.00000    2.28178    4.37871    7.07671
     239      444        4     0.00000    1.72784    4.50606    8.74864
     240      444        4     0.00000    1.68437    5.92258    7.69278
     241      444        4     0.00000   -0.12410    2.77518   12.43348
     242      444        4     0.00000    1.13286    2.75143   13.68593
     243      444        4     0.00000    1.22442    3.92221   12.36992
     244      444        4     0.00000   -0.05321    8.28206   11.84163
     245      444        4     0.00000   -1.47545    8.42174   12.88502
     246      444        4     0.00000   -1.60808    8.65747   11.12009
     247      444        4     0.00000    0.13573    6.03731    9.70685
     248      444        4     0.00000    0.08626    4.52258   10.62349
     249      444        4     0.00000    0.98331    5.91975   11.25118
     250      444        4     0.00000   -6.46161   12.55941   14.03026
     251      444        4     0.00000   -4.83978   11.95390   14.45444
     252      444        4     0.00000   -5.58586   13.21151   15.43706
     253      444        4     0.00000   -2.64328   10.41683   13.00542
     254      444        4     0.00000   -3.49285    9.13078   12.10243
     255      444        4     0.00000   -4.41393   10.28106   13.06678
     256      444        4     0.00000    3.64405    0.13080   11.68135
     257      444        4     0.00000   -5.24138   12.68929   12.29989
     258      444        4     0.00000   -5.22780   13.25276   10.62194
     259      444        4     0.00000    3.56455    4.07515    2.93330
     260      444        4     0.00000    5.24226    3.50135    3.17884
     261      444        4     0.00000    4.38787    4.33923    4.49045
     262      444        4     0.00000    6.61458    4.46321    0.14329
     263      444        4     0.00000    7.01683    3.84273    1.75678
     264      444        4     0.00000    5.36124    3.67080    1.12182
     265      444        4     0.00000    5.93703    2.61918   15.53011
     266      444        4     0.00000    4.57689    1.96336   16.46931
     267      444        4     0.00000    5.79170    0.86311   15.82697
     268      444        4     0.00000    8.77387    1.07120   16.82471
     269      444        4     0.00000    9.22118    1.92153    0.69361
     270      444        4     0.00000    8.76765    2.84372   16.77782
     271      444        4     0.00000    9.42829    0.84016    8.69559
     272      444        4     0.00000    8.79790   -0.50237    9.65290
     273      444        4     0.00000    7.81245    0.95630    9.43012
     274      444        4     0.00000    5.77167    1.03557    8.70036
     275      444        4     0.00000    5.37601    0.40756   10.29638
     276      444        4     0.00000    5.99123    2.08133   10.11513
     277      444        4     0.00000    1.63587    2.92301   10.25185
     278      444        4     0.00000    3.06923    3.57624   11.06723
     279      444        4     0.00000    2.45648    1.95759   11.48550
     280      444        4     0.00000    4.02038    1.08839   13.38673
     281      444        4     0.00000    5.03136    1.67330   12.03078
     282      444        4     0.00000    5.29486    2.25804   13.66788
     283      444        4     0.00000    8.44151    0.91529   13.33783
     284      444        4     0.00000    0.88570   13.23800   14.69828
     285      444        4     0.00000    7.76576    1.43399   14.88739
     286      444        4     0.00000    3.89413    4.77754   17.07497
     287      444        4     0.00000    2.50719    5.04314    0.26939
     288      444        4     0.00000    4.01708    5.16648    1.17862
     289      444        4     0.00000    3.89095    3.25848   15.10086
     290      444        4     0.00000    3.13422    3.63279   13.55426
     291      444        4     0.00000    2.78351    4.65192   14.96277
     292      444        4     0.00000    5.36755    3.91066   11.85784
     293      444        4     0.00000    6.65292    3.61284   13.03534
     294      444        4     0.00000    6.63951    5.11796   12.13585
     295      444        4     0.00000    3.81976    7.35282   14.13180
     296      444        4     0.00000    3.36619    6.46982   12.67048
     297      444        4     0.00000    4.91006    7.34775   12.72062
     298      444        4     0.00000    0.90896    9.26244    3.56946
     299      444        4     0.00000    0.31895    8.78621    2.01085
     300      444        4     0.00000    1.04124   10.41150    2.21906
     301      444        4     0.00000    1.52587    9.27430   -0.01951
     302      444        4     0.00000    0.25655    9.66212   16.25539
     303      444        4     0.00000   -0.21598    9.48879    0.27425
     304      444        4     0.00000    1.65029    7.35001    9.24469
     305      444        4     0.00000    0.34088    7.47368    8.03200
     306      444        4     0.00000    0.63380    8.78193    9.17970
     307      444        4     0.00000    4.07240   10.51302    8.25387
     308      444        4     0.00000    3.49242    9.47621    9.57235
     309      444        4     0.00000    2.45748   10.78356    8.98761
     310      444        4     0.00000    2.04743    9.48339   11.42893
     311      444        4     0.00000    2.08128    7.84064   12.04997
     312      444        4     0.00000    3.42805    8.92617   12.40038
     313      444        4     0.00000   -2.16244    9.27095   16.51259
     314      444        4     0.00000   -1.52157    9.42283   14.85962
     315      444        4     0.00000   -3.25346    9.65202   15.17259
     316      444        4     0.00000    2.63056   11.75592   10.91507
     317      444        4     0.00000    2.65508   12.00339   12.66616
     318      444        4     0.00000    2.08297   13.29083   11.59709
     319      444        4     0.00000    2.96640   12.29160    1.23218
     320      444        4     0.00000   10.80644    0.35084    0.40541
     321      444        4     0.00000   10.32630    0.33297    2.12486
     322      444        4     0.00000   -0.23050    1.55171    8.20977
     323      444        4     0.00000    7.11827   13.46987    9.07378
     324      444        4     0.00000   13.67464    1.43490    9.57039
     325      444        4     0.00000    4.62753   12.16918    9.49081
     326      444        4     0.00000    3.19117   12.52724    8.50958
     327      444        4     0.00000   11.27086    0.24574    9.70249
     328      444        4     0.00000   11.68523    2.01129   10.06338
     329      444        4     0.00000   12.86749    2.87757   11.06396
     330      444        4     0.00000   11.70660    3.77711   10.07060
     331      444        4     0.00000    8.24069    2.81620   12.48412
     332      444        4     0.00000    8.69592    1.81367   11.09903
     333      444        4     0.00000    8.59837    3.57967   10.93782
     334      444        4     0.00000   11.25953    0.58985   12.58420
     335      444        4     0.00000   10.49457    1.28520   14.03730
     336      444        4     0.00000   12.17390    1.69150   13.61770
     337      444        4     0.00000   10.92996    3.48978    0.38432
     338      444        4     0.00000   11.02660    2.46250    1.82053
     339      444        4     0.00000   12.12498    3.83203    1.65457
     340      444        4     0.00000    6.08329    5.28183    2.55577
     341      444        4     0.00000    5.98034    6.77277    1.61388
     342      444        4     0.00000    4.62271    6.27864    2.64819
     343      444        4     0.00000   10.28252    6.79537   16.39659
     344      444        4     0.00000   -3.97082    7.64580    0.16354
     345      444        4     0.00000    9.77394    8.46820   16.63721
     346      444        4     0.00000    8.60337    2.53973    7.45708
     347      444        4     0.00000    8.09754    3.64997    8.74929
     348      444        4     0.00000    9.61245    2.73702    8.91151
     349      444        4     0.00000    3.72829    6.42070    9.20154
     350      444        4     0.00000    4.12921    7.54616   10.51234
     351      444        4     0.00000    4.20522    5.78938   10.78775
     352      444        4     0.00000    9.93878    4.46228   15.90071
     353      444        4     0.00000    8.75405    3.68995   14.82571
     354      444        4     0.00000    8.37528    5.24422   15.57682
     355      444        4     0.00000   -3.72310    7.33084   12.95737
     356      444        4     0.00000   -3.16935    6.77972   14.53350
     357      444        4     0.00000   10.39092    7.76836   14.39996
     358      444        4     0.00000    5.00791   11.40185   14.21776
     359      444        4     0.00000    4.99566   12.85790   15.20886
     360      444        4     0.00000    3.79047   12.67977   13.92662
     361      444        4     0.00000    5.69951    9.01750   11.06731
     362      444        4     0.00000    5.53204   10.24296    9.80044
     363      444        4     0.00000    4.47579   10.29907   11.22825
     364      444        4     0.00000    5.65142   13.07811   12.82384
     365      444        4     0.00000    5.91520   13.28429   11.08211
     366      444        4     0.00000   14.77537   -0.01864   12.18780

Bonds

       1        1        1       67
       2        1        1       82
       3        1        1       84
       4        1        1       93
       5        1        2       68
       6        1        2       71
       7        1        2      128
       8        1        2      131
       9        1        3       67
      10        1        3       70
      11        1        3       72
      12        2        3      175
      13        1        4       69
      14        1        4       87
      15        1        4       90
      16        1        4       96
      17        1        5       68
      18        1        5       69
      19        1        5       74
      20        1        5       94
      21        1        6       70
      22        1        6       77
      23        2        6      176
      24        2        6      177
      25        1        7       71
      26        1        7       72
      27        1        7       73
      28        1        7       99
      29        1        8       75
      30        1        8       80
      31        1        8      135
      32        1        8      141
      33        1        9       73
      34        1        9       81
      35        1        9      107
      36        2        9      178
      37        1       10       74
      38        1       10       76
      39        2       10      179
      40        2       10      180
      41        1       11       78
      42        1       11       85
      43        1       11      139
      44        1       11      148
      45        1       12       75
      46        1       12       76
      47        1       12       86
      48        1       12      100
      49        1       13       77
      50        1       13       79
      51        1       13      105
      52        2       13      181
      53        1       14       78