Created on Sun Oct 05 23:43:28 2025 

         346 atoms
         351 bonds
         656 angles
         777 dihedrals

           4 atom types
           4 bond types
           9 angle types
           2 dihedral types
           0.000000  17.076078 xlo xhi
           0.000000  13.980581 ylo yhi
           0.000000  17.246173 zlo zhi
          -8.040722   0.858085  -2.739521 xy xz yz

Masses

    1    28.085500000 # Si3
    2    12.010700000 # C_3
    3     1.007940000 # H_
    4    15.999400000 # O_2

Bond Coeffs

    1      226.661263        1.866919  # Si3 C_3
    2      172.712984        1.470529  # Si3 H_
    3      365.702108        1.692864  # Si3 O_2
    4      331.069389        1.109401  # C_3 H_

Angle Coeffs

    1                      fourier       58.020602        0.343737        0.374972        0.281246 # C_3 Si3 H_
    2                      fourier      157.882480        0.343737        0.374972        0.281246 # C_3 Si3 O_2
    3                      fourier       32.417871        0.343737        0.374972        0.281246 # H_ Si3 H_
    4                      fourier       83.380072        0.343737        0.374972        0.281246 # H_ Si3 O_2
    5                      fourier      221.735285        0.343737        0.374972        0.281246 # O_2 Si3 O_2
    6                      fourier      114.246973        0.343737        0.374972        0.281246 # C_3 Si3 C_3
    7                      fourier       90.420412        0.343737        0.374972        0.281246 # Si3 C_3 H_
    8                      fourier       75.498766        0.343737        0.374972        0.281246 # H_ C_3 H_
    9              cosine/periodic       88.853997              -1               3 # Si3 O_2 Si3

Dihedral Coeffs

    1        0.089508               1               3 # H_ Si3 C_3 H_
    2        0.333333               1               3 # C_3 Si3 O_2 Si3

Pair Coeffs

    1        0.402000        3.826410 # Si3 Si3
    2        0.105000        3.430851 # C_3 C_3
    3        0.044000        2.571134 # H_ H_
    4        0.060000        3.118146 # O_2 O_2

Atoms

       1      444        1     0.00000    1.66917    1.21527    0.12222
       2      444        1     0.00000    3.54468    0.52383    5.62853
       3      444        1     0.00000    0.54566    0.88799    9.33866
       4      444        1     0.00000   -1.78247    7.14327    5.07986
       5      444        1     0.00000   -0.04650    6.14309    0.98683
       6      444        1     0.00000    1.73329    3.37652    7.72073
       7      444        1     0.00000   -2.81403    4.40119    8.07650
       8      444        1     0.00000    0.77634    6.09556    6.51973
       9      444        1     0.00000    1.64910    1.11998   13.83540
      10      444        1     0.00000   11.85726    4.30690   14.22559
      11      444        1     0.00000   -1.04080    8.56662    2.40782
      12      444        1     0.00000   -6.26748   11.37611    2.89370
      13      444        1     0.00000   -3.02475   10.16721    0.48426
      14      444        1     0.00000   -3.23043   10.44188    7.64819
      15      444        1     0.00000   10.00254    8.73187    9.93064
      16      444        1     0.00000   -3.88355   11.54631    4.88793
      17      444        1     0.00000    0.87463    5.33629   13.84457
      18      444        1     0.00000   10.07150    8.73238   14.89628
      19      444        1     0.00000   -4.59859    9.06793   11.81030
      20      444        1     0.00000    7.87733   -0.07350    2.56794
      21      444        1     0.00000    6.79435    1.25534   -0.01564
      22      444        1     0.00000    5.05950   -1.79624   15.53511
      23      444        1     0.00000    6.27654    4.06523    1.24678
      24      444        1     0.00000    4.24115    8.80546    1.04679
      25      444        1     0.00000    6.23252    0.11018   13.28521
      26      444        1     0.00000    3.09344    2.58447   16.23551
      27      444        1     0.00000    3.89136   10.94035    3.20146
      28      444        1     0.00000   -0.88628   11.16967    4.00556
      29      444        1     0.00000    2.06555   12.39871    1.20161
      30      444        1     0.00000    0.69467   12.17291    6.58780
      31      444        1     0.00000   -0.84815    7.69754   14.87032
      32      444        1     0.00000   13.56670    2.20958    2.81444
      33      444        1     0.00000    8.96890    2.21448    4.29114
      34      444        1     0.00000   11.94865    2.78549    0.17698
      35      444        1     0.00000   16.09640   -0.94993    7.39035
      36      444        1     0.00000   10.37122   -0.95824   15.82417
      37      444        1     0.00000   14.90080    0.66546   11.00171
      38      444        1     0.00000   10.73566    5.47828    1.32137
      39      444        1     0.00000    7.30915    7.27623    3.31627
      40      444        1     0.00000    9.89722    4.54389   16.68067
      41      444        1     0.00000   10.93542    2.35616   11.92359
      42      444        1     0.00000    6.98076    5.13115   16.00840
      43      444        1     0.00000   11.51021    4.22835    9.50597
      44      444        1     0.00000    8.73535    9.54034    1.65839
      45      444        1     0.00000   13.64034   -0.58448    4.28697
      46      444        1     0.00000    7.21753   11.86229    0.09365
      47      444        1     0.00000    9.42315    7.20154    7.24817
      48      444        1     0.00000    6.09519   10.72103    8.11876
      49      444        1     0.00000    8.33329   12.08452    4.54525
      50      444        1     0.00000    8.00861    6.82264   13.63103
      51      444        1     0.00000    7.51513    9.11794   11.85360
      52      444        2     0.00000    1.89959    1.24214    1.96737
      53      444        2     0.00000    4.93761    1.70922    6.01229
      54      444        2     0.00000    0.52835    4.91570    2.26632
      55      444        2     0.00000    3.15028    3.95359    8.78491
      56      444        2     0.00000   -1.82933    4.63464    9.65199
      57      444        2     0.00000   14.92674    3.07969    6.93958
      58      444        2     0.00000    2.33439    6.23524    5.50415
      59      444        2     0.00000   -0.03983    1.10877   14.63533
      60      444        2     0.00000    2.01500   -0.62273   13.26217
      61      444        2     0.00000    1.84743    2.34784   12.41866
      62      444        2     0.00000   13.35647    3.67445   15.12779
      63      444        2     0.00000   -1.79886    5.81518    0.45537
      64      444        2     0.00000   -3.70981    8.66316    7.94452
      65      444        2     0.00000    0.61858    7.42594    7.81286
      66      444        2     0.00000   -3.40982   11.61335    9.09736
      67      444        2     0.00000   10.06679   10.47883    9.32038
      68      444        2     0.00000   12.34460    5.68103   13.08379
      69      444        2     0.00000   -5.52767    8.14585   15.85182
      70      444        2     0.00000   -2.87206    8.55651   11.30452
      71      444        2     0.00000   -3.49685   10.60685   14.73241
      72      444        2     0.00000    4.93468    3.62707    2.47179
      73      444        2     0.00000    3.50397    7.30547    1.85274
      74      444        2     0.00000    7.62101   -1.08427   12.84383
      75      444        2     0.00000    5.30019    0.48673   11.70163
      76      444        2     0.00000    3.42426   10.17998    4.82434
      77      444        2     0.00000    3.55755   12.97007    0.27308
      78      444        2     0.00000    1.12450   11.04038    8.01073
      79      444        2     0.00000    7.61965   -0.43870    7.19290
      80      444        2     0.00000   -0.03961    9.20882   14.14943
      81      444        2     0.00000    0.87762   11.46966    0.12293
      82      444        2     0.00000   13.17447    3.78001    3.71571
      83      444        2     0.00000   10.26806    1.71929    5.53914
      84      444        2     0.00000    7.89208    3.54184    5.04459
      85      444        2     0.00000   13.94162   -0.05317   15.96145
      86      444        2     0.00000   11.10164   -2.06079   14.49641
      87      444        2     0.00000   13.56007    0.59887    9.69837
      88      444        2     0.00000   15.11598   -1.02395   11.78191
      89      444        2     0.00000   11.79086    6.89343    1.89354
      90      444        2     0.00000    6.08921    7.52967    4.69956
      91      444        2     0.00000    9.93487    0.70819   15.14774
      92      444        2     0.00000    9.19540    2.09498   11.31827
      93      444        2     0.00000   14.51545    1.97763   12.27379
      94      444        2     0.00000    6.68749    1.72514   14.10614
      95      444        2     0.00000    7.10351   13.57738    0.78022
      96      444        2     0.00000    7.79390    6.33218    7.58968
      97      444        2     0.00000   10.63223    6.05706    6.38696
      98      444        2     0.00000    4.59249   11.04725    9.16876
      99      444        2     0.00000    9.27992    8.76432    6.22668
     100      444        2     0.00000    8.23721    5.35339   12.53031
     101      444        3     0.00000    0.68154    2.25841   -0.28963
     102      444        3     0.00000   -6.04191   11.13337   16.91718
     103      444        3     0.00000    2.55486    1.13345    4.70176
     104      444        3     0.00000    1.74738    0.47705   10.08822
     105      444        3     0.00000   -1.69391    8.37662    5.90343
     106      444        3     0.00000    2.20459    2.73677    6.46152
     107      444        3     0.00000   -5.74885   12.15489    1.75442
     108      444        3     0.00000   -3.30999   11.36778    1.30673
     109      444        3     0.00000   -2.88635    5.72456    7.39028
     110      444        3     0.00000   -1.80246   10.48559    7.21735
     111      444        3     0.00000    2.84642    0.08024    6.87196
     112      444        3     0.00000    0.01144    4.12447   13.86218
     113      444        3     0.00000    2.25178    5.01499   14.30682
     114      444        3     0.00000   -4.25886    9.47067    0.04294
     115      444        3     0.00000   10.35023    9.90200   14.01814
     116      444        3     0.00000    0.94072    5.85514   12.44149
     117      444        3     0.00000   -4.82945    8.60116   13.19137
     118      444        3     0.00000   -4.73277   10.55608   11.77455
     119      444        3     0.00000    7.57171    4.30729    1.94209
     120      444        3     0.00000    3.96434    3.66947   15.71466
     121      444        3     0.00000    3.29267    9.45274    0.09861
     122      444        3     0.00000    2.93573    4.53291    0.04086
     123      444        3     0.00000   -2.04630    7.27944   14.08193
     124      444        3     0.00000   15.19641    0.12222    6.92937
     125      444        3     0.00000    9.63102    2.70934    3.05009
     126      444        3     0.00000   10.02326    4.82934    2.44982
     127      444        3     0.00000   -3.06467    6.42242    5.24689
     128      444        3     0.00000    5.88461    5.25297    0.44516
     129      444        3     0.00000    6.64356    6.53329    2.21320
     130      444        3     0.00000    8.48974    6.49076    3.78181
     131      444        3     0.00000   11.60226    1.03524   12.08669
     132      444        3     0.00000    5.98405    4.25073   15.38371
     133      444        3     0.00000   10.20255    3.90357    8.86753
     134      444        3     0.00000   13.19730   -0.70237    5.69463
     135      444        3     0.00000    1.95622   12.77217    6.05805
     136      444        3     0.00000   15.00569    2.17232    2.42911
     137      444        3     0.00000    5.91331   11.23964   -0.21332
     138      444        3     0.00000    6.76184    9.45261    8.53234
     139      444        3     0.00000    7.76349   10.74288    4.33577
     140      444        3     0.00000   11.55432    5.63003    9.98907
     141      444        3     0.00000    5.73086   10.60033    6.67575
     142      444        3     0.00000    6.30108    9.55493   11.11769
     143      444        3     0.00000    8.11547   10.24381   12.61821
     144      444        3     0.00000    2.73254    0.58809    2.25992
     145      444        3     0.00000    0.99750    0.88677    2.48640
     146      444        3     0.00000    2.12016    2.25455    2.32994
     147      444        3     0.00000    4.58157    2.74635    6.06210
     148      444        3     0.00000    5.70014    1.64562    5.22411
     149      444        3     0.00000    5.41913    1.46600    6.96918
     150      444        3     0.00000    1.59627    5.03579    2.49514
     151      444        3     0.00000    0.37024    3.89140    1.89899
     152      444        3     0.00000   -0.03489    5.03039    3.20261
     153      444        3     0.00000    3.78497    4.68139    8.25719
     154      444        3     0.00000    3.78750    3.10561    9.07835
     155      444        3     0.00000    2.77514    4.42789    9.70434
     156      444        3     0.00000   -0.85830    5.09221    9.41594
     157      444        3     0.00000   -1.62573    3.68190   10.15681
     158      444        3     0.00000   -2.35657    5.29898   10.35296
     159      444        3     0.00000   -1.63412    2.30320    7.51680
     160      444        3     0.00000   -1.43108    3.48686    6.21675
     161      444        3     0.00000   14.09845    2.60396    6.39748
     162      444        3     0.00000    2.33105    7.14555    4.88903
     163      444        3     0.00000    2.43903    5.37495    4.82738
     164      444        3     0.00000    3.22387    6.27415    6.15064
     165      444        3     0.00000    0.03973    0.50183   15.55012
     166      444        3     0.00000   -0.80008    0.64176   13.99849
     167      444        3     0.00000   -0.39037    2.10901   14.91897
     168      444        3     0.00000    1.38872   -0.86299   12.38901
     169      444        3     0.00000    1.77857   -1.35596   14.04744
     170      444        3     0.00000    3.06474   -0.75595   12.97518
     171      444        3     0.00000    2.27242    3.29217   12.79031
     172      444        3     0.00000    0.89507    2.56365   11.91564
     173      444        3     0.00000    2.54205    1.96342   11.65962
     174      444        3     0.00000   14.17905    3.44232   14.44022
     175      444        3     0.00000   13.15884    2.79455   15.75174
     176      444        3     0.00000   -3.37576    4.48034   15.79567
     177      444        3     0.00000   -1.90188    4.76919    0.13530
     178      444        3     0.00000   -2.09028    6.45550   -0.38800
     179      444        3     0.00000   -2.51048    5.98877    1.27278
     180      444        3     0.00000   -2.87068    8.08412    8.35249
     181      444        3     0.00000   -3.97035    8.21629    6.97489
     182      444        3     0.00000   -4.56729    8.52615    8.61241
     183      444        3     0.00000    0.51639    8.41658    7.35172
     184      444        3     0.00000    1.50184    7.44220    8.46872
     185      444        3     0.00000   -0.26507    7.25769    8.44578
     186      444        3     0.00000    4.80260   -1.33461    8.75871
     187      444        3     0.00000   -2.66683   11.39209    9.87799
     188      444        3     0.00000   -4.40557   11.57915    9.55614
     189      444        3     0.00000    9.08985   10.77418    8.92250
     190      444        3     0.00000   -6.27194   10.62369    8.52092
     191      444        3     0.00000   -6.76795   11.17102   10.14054
     192      444        3     0.00000   11.48010    6.20113   12.65274
     193      444        3     0.00000   -4.12742    5.26799   12.26303
     194      444        3     0.00000   -4.11288    6.41567   13.61556
     195      444        3     0.00000   -4.67583    7.90925   15.20578
     196      444        3     0.00000   -5.78698    7.24391   16.41520
     197      444        3     0.00000   -5.22036    8.92484   16.56295
     198      444        3     0.00000   -2.17191    8.84874   12.09995
     199      444        3     0.00000   -2.54067    9.02318   10.37059
     200      444        3     0.00000   -2.80622    7.46524   11.19223
     201      444        3     0.00000   -3.38207    9.75567   15.41194
     202      444        3     0.00000   -2.86056   10.43024   13.85373
     203      444        3     0.00000   -4.53798   10.64760   14.39010
     204      444        3     0.00000    5.15315    2.67353    2.97229
     205      444        3     0.00000    3.97291    3.52894    1.95049
     206      444        3     0.00000    4.82663    4.40693    3.24026
     207      444        3     0.00000    3.44013    6.46103    1.15453
     208      444        3     0.00000    2.48882    7.53891    2.20370
     209      444        3     0.00000    4.10829    6.97780    2.70817
     210      444        3     0.00000    7.18265   -1.93781   12.30183
     211      444        3     0.00000    8.11985   -1.48511   13.73597
     212      444        3     0.00000    8.38580   -0.64529   12.18787
     213      444        3     0.00000    4.50583    1.22644   11.86699
     214      444        3     0.00000    4.85381   -0.40915   11.24849
     215      444        3     0.00000    6.00332    0.91530   10.96858
     216      444        3     0.00000    4.25735    9.65604    5.30615
     217      444        3     0.00000    2.59247    9.47670    4.67775
     218      444        3     0.00000    3.07945   10.96752    5.50762
     219      444        3     0.00000    4.14021   10.77270   16.60962
     220      444        3     0.00000    4.15824   12.10079   -0.02471
     221      444        3     0.00000    4.17402   13.63589    0.88683
     222      444        3     0.00000    1.57111   11.63571    8.82169
     223      444        3     0.00000    1.85120   10.26939    7.72347
     224      444        3     0.00000    0.23149   10.54281    8.41249
     225      444        3     0.00000    7.33392    0.22996    6.37215
     226      444        3     0.00000    8.14570    0.15699    7.95580
     227      444        3     0.00000    6.70746   -0.84018    7.65478
     228      444        3     0.00000   -0.03925    9.14974   13.05013
     229      444        3     0.00000    1.00735    9.27083   14.47576
     230      444        3     0.00000   -0.54321   10.13533   14.45190
     231      444        3     0.00000    0.12140   10.94693    0.71920
     232      444        3     0.00000    2.25216    7.98012   16.75381
     233      444        3     0.00000    0.35850   12.17131   -0.54300
     234      444        3     0.00000   -3.63532    4.63026    3.07215
     235      444        3     0.00000   13.75980    3.86839    4.63865
     236      444        3     0.00000   12.10836    3.86154    3.96772
     237      444        3     0.00000   10.88193    2.59927    5.78849
     238      444        3     0.00000   10.94195    0.94360    5.15580
     239      444        3     0.00000    9.81496    1.35994    6.47301
     240      444        3     0.00000    7.52727    3.24085    6.03713
     241      444        3     0.00000    7.02596    3.78350    4.41571
     242      444        3     0.00000    8.48931    4.45583    5.16752
     243      444        3     0.00000   13.47170    0.36241   15.05844
     244      444        3     0.00000   14.20066   -1.10216   15.75464
     245      444        3     0.00000   14.87382    0.49887   16.12910
     246      444        3     0.00000    3.07141   10.85990   14.78378
     247      444        3     0.00000   12.13196   -1.76651   14.24896
     248      444        3     0.00000   10.50221   -1.97444   13.57776
     249      444        3     0.00000   13.79752   -0.10730    8.89549
     250      444        3     0.00000   13.36811    1.58391    9.25490
     251      444        3     0.00000   12.62361    0.26371   10.16926
     252      444        3     0.00000   15.38662   -1.76143   11.01323
     253      444        3     0.00000   14.17794   -1.35803   12.25244
     254      444        3     0.00000   15.89791   -1.04159   12.55344
     255      444        3     0.00000   12.34702    7.34901    1.06283
     256      444        3     0.00000   12.52168    6.56358    2.64480
     257      444        3     0.00000   11.18231    7.68290    2.35626
     258      444        3     0.00000    5.74195    6.55421    5.07277
     259      444        3     0.00000    5.21849    8.08043    4.32551
     260      444        3     0.00000    6.51930    8.08559    5.54207
     261      444        3     0.00000    9.27712    0.63862   14.27364
     262      444        3     0.00000   10.84394    1.23762   14.83585
     263      444        3     0.00000    9.43680    1.32755   15.90395
     264      444        3     0.00000    9.24437    1.50028   10.39227
     265      444        3     0.00000    8.68509    3.03934   11.08858
     266      444        3     0.00000    8.58798    1.54284   12.04221
     267      444        3     0.00000   14.00192    2.83010   11.81109
     268      444        3     0.00000   -1.64297    2.34579   12.74946
     269      444        3     0.00000   13.86256    1.57871   13.06156
     270      444        3     0.00000    7.37722    2.36542   13.54307
     271      444        3     0.00000    7.10533    1.56659   15.10820
     272      444        3     0.00000    5.74647    2.28406   14.22773
     273      444        3     0.00000   15.76165   -2.42923   17.22667
     274      444        3     0.00000   16.09636   -0.10711    1.23959
     275      444        3     0.00000   14.36338   -0.33729    1.54355
     276      444        3     0.00000    7.33827    5.90540    6.68769
     277      444        3     0.00000    7.07057    7.01806    8.05529
     278      444        3     0.00000    7.97362    5.50620    8.29550
     279      444        3     0.00000   10.35557    5.97169    5.32453
     280      444        3     0.00000   10.64799    5.04467    6.81179
     281      444        3     0.00000   11.65641    6.45473    6.42653
     282      444        3     0.00000    3.92481   10.17297    9.15467
     283      444        3     0.00000    4.03049   11.91723    8.80340
     284      444        3     0.00000    4.88131   11.23237   10.21255
     285      444        3     0.00000    8.50730    9.44712    6.60437
     286      444        3     0.00000    9.05722    8.54916    5.17314
     287      444        3     0.00000   10.23703    9.30844    6.24555
     288      444        3     0.00000    7.26006    4.92163   12.26862
     289      444        3     0.00000    8.84068    4.58096   13.02441
     290      444        3     0.00000    8.73888    5.65558   11.59976
     291      444        4     0.00000    0.82932    2.28397    8.54286
     292      444        4     0.00000   -0.53356    6.15160    5.50032
     293      444        4     0.00000    0.76185    4.63487    7.29518
     294      444        4     0.00000   -1.73305    7.55407    3.49171
     295      444        4     0.00000    0.08127    7.70024    1.59663
     296      444        4     0.00000   -2.17644    9.07846    1.36455
     297      444        4     0.00000   -5.05674   10.97798    3.90847
     298      444        4     0.00000   -4.17184   11.00819    6.39676
     299      444        4     0.00000   -3.84835   13.17315    4.86642
     300      444        4     0.00000   11.31482    8.39451   10.85476
     301      444        4     0.00000    6.84891    0.54032    1.45309
     302      444        4     0.00000    6.45196   -2.12668   16.34578
     303      444        4     0.00000    3.96093   -1.23549   16.60960
     304      444        4     0.00000    6.51446    2.84803    0.15225
     305      444        4     0.00000    5.26208   -0.66306   14.38362
     306      444        4     0.00000    2.72918    1.57167   15.01621
     307      444        4     0.00000    1.77333    3.31340   16.89392
     308      444        4     0.00000    4.67574    9.87559    2.22443
     309      444        4     0.00000   -0.37305    9.83970    3.18990
     310      444        4     0.00000   -0.78327   12.48417    3.06237
     311      444        4     0.00000   -2.46157   10.94504    4.36704
     312      444        4     0.00000    2.52375   11.42398    2.46186
     313      444        4     0.00000    9.34610   -0.28930    1.91091
     314      444        4     0.00000    0.00844   11.30718    5.35023
     315      444        4     0.00000    0.23537    6.46036   14.85944
     316      444        4     0.00000   -1.33462    7.94406   16.41667
     317      444        4     0.00000    7.98854    0.92957    3.85152
     318      444        4     0.00000   12.64468    2.06195    1.46703
     319      444        4     0.00000    0.22135   -0.32901    8.29246
     320      444        4     0.00000   10.55291    2.00362   -0.15575
     321      444        4     0.00000    9.04130   -1.73798   16.41786
     322      444        4     0.00000   -0.72246    1.13274   10.31956
     323      444        4     0.00000   11.66085    4.35821    0.54910
     324      444        4     0.00000   10.78681    4.84348   15.36187
     325      444        4     0.00000    9.57436    5.99162    0.26076
     326      444        4     0.00000   11.05275    3.14517   13.35463
     327      444        4     0.00000    8.35489    4.26735   16.23274
     328      444        4     0.00000    5.60700    8.41439    0.21190
     329      444        4     0.00000   12.69261    3.95277    8.41617
     330      444        4     0.00000   11.74551    3.21668   10.78007
     331      444        4     0.00000    7.84148    8.72433    2.73619
     332      444        4     0.00000    9.10519    8.61023    0.37988
     333      444        4     0.00000   10.14382    9.96936    2.38413
     334      444        4     0.00000    4.89960   12.22292    3.40510
     335      444        4     0.00000   13.23939    0.89775    3.75968
     336      444        4     0.00000    8.90818    9.22487   15.93653
     337      444        4     0.00000    7.99269   10.89936    1.18995
     338      444        4     0.00000   10.02717    7.62396    8.73969
     339      444        4     0.00000    7.19483   11.95454    8.28249
     340      444        4     0.00000    9.68422   12.30031    3.65357
     341      444        4     0.00000    7.23102   13.23483    4.16473
     342      444        4     0.00000    8.73942   12.26238    6.12287
     343      444        4     0.00000    7.26345    6.41457   15.03514
     344      444        4     0.00000    9.45920    7.52323   13.94782
     345      444        4     0.00000    8.61953    8.51639   10.79971
     346      444        4     0.00000    7.03774    7.93064   12.88493

Bonds

       1        1        1       52
       2        2        1      101
       3        2        1      102
       4        3        1      303
       5        1        2       53
       6        2        2      103
       7        2        2      111
       8        3        2      299
       9        2        3      104
      10        3        3      291
      11        3        3      319
      12        3        3      322
      13        2        4      105
      14        2        4      127
      15        3        4      292
      16        3        4      294
      17        1        5       54
      18        1        5       63
      19        3        5      295
      20        3        5      307
      21        1        6       55
      22        2        6      106
      23        3        6      291
      24        3        6      293
      25        1        7       56
      26        1        7       57
      27        2        7      109
      28        3        7      329
      29        1        8       58
      30        1        8       65
      31        3        8      292
      32        3        8      293
      33        1        9       59
      34        1        9       60
      35        1        9       61
      36        3        9      306
      37        1       10       62
      38        1       10       68
      39        3       10      324
      40        3       10      326
      41        3       11      294
      42        3       11      295
      43        3       11      296
      44        3       11      309
      45        2       12      107
      46        3       12      297
      47        3       12      333
      48        3       12      340
      49        2       13      108
      50        2       13      114
      51        3       13      296
      52        3       13      316
      53        1       14       64
      54        1       14       66
      55        2       14      110
      56        3       14      298
      57        1       15       67
      58        3       15      300
      59        3       15      338
      60        3       15      345
      61        3       16      297
      62        3       16      298
      63        3       16      299
      64        3       16      311
      65        2       17      112
      66        2       17      113
      67        2       17      116
      68        3       17      315
      69        1       18       69
      70        2       18      115
      71        3       18      336
      72        3       18      344
      73        1       19       70
      74        2       19      117
      75        2       19      118
      76        3       19      300
      77        3       20      301
      78        3       20      310
      79        3       20      313
      80        3       20      317
      81        3       21      301
      82        3       21      302