Created on Sun Oct 05 23:43:32 2025 

         274 atoms
         294 bonds
         557 angles
         696 dihedrals

           4 atom types
           4 bond types
           9 angle types
           2 dihedral types
           0.000000  15.623860 xlo xhi
           0.000000  12.410805 ylo yhi
           0.000000  16.075452 zlo zhi
          -8.379751   1.194995   0.431155 xy xz yz

Masses

    1    28.085500000 # Si3
    2    12.010700000 # C_3
    3    15.999400000 # O_2
    4     1.007940000 # H_

Bond Coeffs

    1      226.661263        1.866919  # Si3 C_3
    2      365.702108        1.692864  # Si3 O_2
    3      172.712984        1.470529  # Si3 H_
    4      331.069389        1.109401  # C_3 H_

Angle Coeffs

    1                      fourier      157.882480        0.343737        0.374972        0.281246 # C_3 Si3 O_2
    2                      fourier      221.735285        0.343737        0.374972        0.281246 # O_2 Si3 O_2
    3                      fourier       83.380072        0.343737        0.374972        0.281246 # O_2 Si3 H_
    4                      fourier       58.020602        0.343737        0.374972        0.281246 # C_3 Si3 H_
    5                      fourier      114.246973        0.343737        0.374972        0.281246 # C_3 Si3 C_3
    6                      fourier       32.417871        0.343737        0.374972        0.281246 # H_ Si3 H_
    7                      fourier       90.420412        0.343737        0.374972        0.281246 # Si3 C_3 H_
    8                      fourier       75.498766        0.343737        0.374972        0.281246 # H_ C_3 H_
    9              cosine/periodic       88.853997              -1               3 # Si3 O_2 Si3

Dihedral Coeffs

    1        0.089508               1               3 # O_2 Si3 C_3 H_
    2        0.333333               1               3 # C_3 Si3 O_2 Si3

Pair Coeffs

    1        0.402000        3.826410 # Si3 Si3
    2        0.105000        3.430851 # C_3 C_3
    3        0.060000        3.118146 # O_2 O_2
    4        0.044000        2.571134 # H_ H_

Atoms

       1      444        1     0.00000   -6.41153   12.32030    1.77975
       2      444        1     0.00000   -0.71756    2.13503    3.83035
       3      444        1     0.00000    0.57589    2.15650    0.11071
       4      444        1     0.00000   -0.69258    2.42369    9.35591
       5      444        1     0.00000    1.95387    2.62115    5.29861
       6      444        1     0.00000   14.89264    2.80270   14.50226
       7      444        1     0.00000    2.01432    2.26715   10.73970
       8      444        1     0.00000   -0.04622    4.44601    1.89452
       9      444        1     0.00000    0.42302    4.47021    7.26917
      10      444        1     0.00000   -3.59285    6.29304    9.10173
      11      444        1     0.00000   -0.87062    6.59725    5.49486
      12      444        1     0.00000    0.78813    4.65295   12.51061
      13      444        1     0.00000   11.70774    6.12253   14.79136
      14      444        1     0.00000   -0.82445    6.60191   10.64881
      15      444        1     0.00000    8.43477   10.29881    4.05955
      16      444        1     0.00000   -4.10120   10.69424   15.69999
      17      444        1     0.00000   -2.75809    8.42404    7.06495
      18      444        1     0.00000   -4.19316   10.14838    4.89131
      19      444        1     0.00000   -2.44849    8.11496   12.79760
      20      444        1     0.00000    7.12762    0.35295    2.03504
      21      444        1     0.00000    7.58489    2.50218   15.68627
      22      444        1     0.00000    6.78877    0.23406    7.20908
      23      444        1     0.00000    4.52756    3.22732    9.18190
      24      444        1     0.00000    6.10014    2.46784    5.20468
      25      444        1     0.00000   -0.69067   12.48956   11.89755
      26      444        1     0.00000    6.96841    2.95695   11.00243
      27      444        1     0.00000    5.63669    4.82040    0.51162
      28      444        1     0.00000    1.57077    6.54719    3.59740
      29      444        1     0.00000    4.66177    6.67337   15.06349
      30      444        1     0.00000    5.45773    5.04968    6.94736
      31      444        1     0.00000    1.76367    6.58175    9.18072
      32      444        1     0.00000    4.41842    6.90265    4.75906
      33      444        1     0.00000    4.12174    6.52184   11.09206
      34      444        1     0.00000    2.72847    8.20037    1.35767
      35      444        1     0.00000   -1.66069    9.97457    2.93756
      36      444        1     0.00000   -2.82634   10.63180    9.17365
      37      444        1     0.00000    0.20469   11.04705    5.30331
      38      444        1     0.00000    3.54517    9.46474   12.20069
      39      444        1     0.00000   -1.46695   10.65650   14.23276
      40      444        1     0.00000   13.16084    0.01471    2.34108
      41      444        1     0.00000    5.25738   12.43521    7.98326
      42      444        1     0.00000    8.96338    2.12090    8.69984
      43      444        1     0.00000   12.65947    1.98401    5.85330
      44      444        1     0.00000    9.78055    1.57292   13.63751
      45      444        1     0.00000    6.90894    5.80607    3.02630
      46      444        1     0.00000   10.92348    4.08281    7.31179
      47      444        1     0.00000   10.72672    4.26309   12.66458
      48      444        1     0.00000    9.81481    6.91628   11.24354
      49      444        1     0.00000    6.12465   10.70867   -0.06994
      50      444        1     0.00000    7.50005   10.56326    6.97745
      51      444        1     0.00000    6.34425   10.20175   13.23545
      52      444        2     0.00000    3.50405    0.53187    2.57022
      53      444        2     0.00000    2.78025    2.35068   14.66017
      54      444        2     0.00000    2.42055    1.33212    6.53900
      55      444        2     0.00000   14.86738    1.35617   13.34267
      56      444        2     0.00000    2.85495    0.79461   11.47564
      57      444        2     0.00000   11.60052    5.29673    0.17001
      58      444        2     0.00000   -5.04106    8.80508    0.74720
      59      444        2     0.00000   -5.13637   10.34246   14.19027
      60      444        2     0.00000    8.92007    0.55187    1.64759
      61      444        2     0.00000    6.04267    2.24839   14.72635
      62      444        2     0.00000    4.28755    4.09090    1.55217
      63      444        2     0.00000    7.16582    5.60799    7.36098
      64      444        2     0.00000    2.73553    7.81892    8.22547
      65      444        2     0.00000    2.15316    9.73705    0.51343
      66      444        2     0.00000   -1.46865    8.36893    2.05169
      67      444        2     0.00000    1.37916    9.90908    6.15220
      68      444        2     0.00000    9.45278    0.23419    4.92497
      69      444        2     0.00000    2.44501   10.37343   11.03093
      70      444        2     0.00000    0.22846   10.68415   14.94483
      71      444        2     0.00000   12.03590    1.37758    1.76349
      72      444        2     0.00000    4.09650   11.12825    3.49459
      73      444        2     0.00000   10.34413    1.18770    9.50181
      74      444        2     0.00000   11.45001    0.93601   14.08755
      75      444        2     0.00000    8.58925    6.54521    3.25486
      76      444        2     0.00000   10.57233    5.18065    5.86696
      77      444        2     0.00000   12.25804    3.78640   11.76953
      78      444        2     0.00000    8.14685    7.16418   10.48536
      79      444        2     0.00000    6.76791    9.14502    0.69533
      80      444        2     0.00000    6.32424    9.12666    6.95913
      81      444        2     0.00000    9.01699   10.25499    7.99553
      82      444        3     0.00000    0.95304    1.09566    1.29473
      83      444        3     0.00000    0.83706    1.98927    4.26225
      84      444        3     0.00000    0.16740    2.44502   15.83713
      85      444        3     0.00000    0.67644    1.74723    9.94630
      86      444        3     0.00000   -0.91513    3.38044    2.78179
      87      444        3     0.00000    0.80395    3.66977    0.73220
      88      444        3     0.00000   -0.34530    3.22550    7.97584
      89      444        3     0.00000    1.34038    3.95998    6.03595
      90      444        3     0.00000   -0.70174    5.50268    6.68528
      91      444        3     0.00000   -0.11140    4.14909   13.77875
      92      444        3     0.00000    1.56649    3.37445   11.86089
      93      444        3     0.00000   -2.10992    6.13222    9.75923
      94      444        3     0.00000   -0.22944    5.28538   11.39668
      95      444        3     0.00000   -7.23018   11.33529    2.81082
      96      444        3     0.00000   -6.02773   11.48204    0.43354
      97      444        3     0.00000   -3.49245    7.12492    7.70715
      98      444        3     0.00000   -1.49020    7.96750    6.14587
      99      444        3     0.00000   -5.65955    9.74143    4.29465
     100      444        3     0.00000   -3.87883    9.16340    6.15413
     101      444        3     0.00000   -3.05925    6.79736   13.53778
     102      444        3     0.00000   -1.25842    7.70443   11.75865
     103      444        3     0.00000    6.23866    1.33299    1.06924
     104      444        3     0.00000    2.99666    3.00248    9.65852
     105      444        3     0.00000    5.90817    1.19207    6.22784
     106      444        3     0.00000    5.48586    3.43074   10.49746
     107      444        3     0.00000    6.82204    1.43164   11.59561
     108      444        3     0.00000    6.62233    3.67755   -0.13907
     109      444        3     0.00000    1.01443    5.21211    2.86916
     110      444        3     0.00000    0.57359    6.97281    4.82021
     111      444        3     0.00000    6.19147    6.15452   15.36977
     112      444        3     0.00000    4.59945    4.57676    8.26126
     113      444        3     0.00000    5.48420    3.80648    5.89755
     114      444        3     0.00000    1.36391    5.23997    8.34213
     115      444        3     0.00000    0.34744    7.25289    9.71920
     116      444        3     0.00000    3.07237    6.21427    4.13091
     117      444        3     0.00000    4.64045    6.28292    6.24973
     118      444        3     0.00000    2.65067    6.09760   10.48386
     119      444        3     0.00000    1.65686    7.79916    2.55251
     120      444        3     0.00000    2.78432    6.94180    0.30355
     121      444        3     0.00000   -1.73749   11.19921    1.84265
     122      444        3     0.00000   -3.09966    9.92097    3.71984
     123      444        3     0.00000   -2.25232    9.37261    8.28416
     124      444        3     0.00000   -2.54729   12.05258    8.39155
     125      444        3     0.00000   -0.43957   10.31124    3.97560
     126      444        3     0.00000   -1.03784   11.38383    6.34902
     127      444        3     0.00000    4.12256    8.10367   11.49689
     128      444        3     0.00000   -1.81903    9.07777   13.94611
     129      444        3     0.00000   -1.58830   11.48045   12.80783
     130      444        3     0.00000   -2.60887   11.25618   15.23374
     131      444        3     0.00000   14.36864    0.74511    3.20308
     132      444        3     0.00000   13.83838    1.24482    9.04940
     133      444        3     0.00000    8.00593    1.09050    7.86384
     134      444        3     0.00000    8.03118    2.96882    9.75655
     135      444        3     0.00000   14.03744    2.51808    5.16977
     136      444        3     0.00000   12.87627    0.55199    6.62762
     137      444        3     0.00000    9.06155    0.42684   12.71046
     138      444        3     0.00000    8.90940    1.85254   14.98488
     139      444        3     0.00000    6.57952    5.81586    1.41626
     140      444        3     0.00000    5.73455    6.63706    3.83303
     141      444        3     0.00000    9.56783    3.21642    7.63793
     142      444        3     0.00000   12.15532    3.07128    6.95043
     143      444        3     0.00000   11.38783    4.85115    8.69449
     144      444        3     0.00000    9.76796    2.93616   12.73669
     145      444        3     0.00000   11.07152    4.72173   14.20554
     146      444        3     0.00000   11.04409    7.06123   10.14216
     147      444        3     0.00000    9.85623    5.42042   11.90943
     148      444        3     0.00000    5.33144   11.62984    1.01369
     149      444        3     0.00000    7.90320   10.99425    5.43283
     150      444        3     0.00000    6.73433   11.86838    7.62404
     151      444        3     0.00000    4.85349   10.39691   12.57555
     152      444        3     0.00000    6.26258   10.70375   14.79795
     153      444        4     0.00000   -1.29554    3.31278   10.34365
     154      444        4     0.00000    3.08795    3.09062    4.47197
     155      444        4     0.00000   13.53768    3.16028   14.98219
     156      444        4     0.00000   -0.98143    5.41158    1.28755
     157      444        4     0.00000   -1.79506    6.07016    4.46756
     158      444        4     0.00000    1.73659    5.65361   13.02570
     159      444        4     0.00000   10.58412    7.03683   15.13145
     160      444        4     0.00000    7.56793    9.15232    3.73610
     161      444        4     0.00000   -4.18331   11.54372    5.36158
     162      444        4     0.00000   -3.48118    8.82587   12.02598
     163      444        4     0.00000    6.82573    0.72957    3.43923
     164      444        4     0.00000    4.99343    2.06420    8.41611
     165      444        4     0.00000    5.30267    2.22745    3.99139
     166      444        4     0.00000    7.54883    2.66526    4.94066
     167      444        4     0.00000   -0.29456   11.85467   10.63099
     168      444        4     0.00000    7.37412    3.90563   12.04596
     169      444        4     0.00000    3.79290    5.52881   14.69584
     170      444        4     0.00000    4.77833    7.67058   13.97992
     171      444        4     0.00000    4.20410    8.35634    4.86657
     172      444        4     0.00000    5.19123    6.37250   10.08042
     173      444        4     0.00000    4.35815    5.66575   12.28005
     174      444        4     0.00000    4.06438    8.33894    1.99517
     175      444        4     0.00000   -2.10920   10.58919   10.45938
     176      444        4     0.00000   -4.28890   10.51999    9.38168
     177      444        4     0.00000    2.82067    9.11374   13.45683
     178      444        4     0.00000    4.40877   11.38827    8.58817
     179      444        4     0.00000   11.64243    1.79458    4.80682
     180      444        4     0.00000    6.87692    4.39472    3.50291
     181      444        4     0.00000   10.05712    7.93628   12.29216
     182      444        4     0.00000    8.36192   11.97460   15.36130
     183      444        4     0.00000    7.30739   11.03174   12.46397
     184      444        4     0.00000    6.76067    8.77328   13.19089
     185      444        4     0.00000    4.00991    1.25532    1.92270
     186      444        4     0.00000   -4.18080   12.10358    2.70960
     187      444        4     0.00000    3.32361    1.00587    3.53946
     188      444        4     0.00000    2.12581    2.21055   13.79536
     189      444        4     0.00000    3.41499    1.46203   14.74251
     190      444        4     0.00000    3.41067    3.22145   14.44246
     191      444        4     0.00000    3.29884    1.63400    7.12155
     192      444        4     0.00000    2.66518    0.39306    6.02783
     193      444        4     0.00000    1.58603    1.14069    7.22682
     194      444        4     0.00000   15.88105    0.98174   13.15355
     195      444        4     0.00000   14.41068    1.60105   12.37501
     196      444        4     0.00000   14.29128    0.54207   13.79928
     197      444        4     0.00000    3.77893    1.06504   12.00444
     198      444        4     0.00000    3.11563    0.09760   10.66466
     199      444        4     0.00000    2.19860    0.25312   12.16965
     200      444        4     0.00000   -1.84593    5.37455   15.90422
     201      444        4     0.00000   11.14038    4.49617    0.76842
     202      444        4     0.00000   -3.86469    6.16280    0.82530
     203      444        4     0.00000   -4.28161    8.14647    0.30746
     204      444        4     0.00000    9.66629    8.21545    0.87155
     205      444        4     0.00000   -4.68777    9.11704    1.73978
     206      444        4     0.00000   -4.60406    9.75949   13.42953
     207      444        4     0.00000   -5.43913   11.28975   13.72426
     208      444        4     0.00000    9.57883    9.78305   14.44854
     209      444        4     0.00000    9.12566    0.26919    0.61005
     210      444        4     0.00000    1.16340   12.35270    2.30861
     211      444        4     0.00000    9.21494    1.60291    1.77090
     212      444        4     0.00000    5.90271    1.21082   14.40320
     213      444        4     0.00000    5.98269    2.91438   13.85699
     214      444        4     0.00000    5.21153    2.49446   15.39546
     215      444        4     0.00000    4.68904    3.35609    2.26206
     216      444        4     0.00000    3.51096    3.59882    0.95114
     217      444        4     0.00000    3.78375    4.87224    2.13511
     218      444        4     0.00000    7.13839    6.52592    7.95857
     219      444        4     0.00000    7.71353    5.82367    6.43243
     220      444        4     0.00000    7.72866    4.84468    7.91132
     221      444        4     0.00000    2.45778    7.82284    7.16812
     222      444        4     0.00000    3.80433    7.57881    8.27934
     223      444        4     0.00000    2.58173    8.82708    8.62853
     224      444        4     0.00000    1.82368   10.49355    1.23569
     225      444        4     0.00000    2.50351    9.93591   15.92810
     226      444        4     0.00000    4.15557   10.59249   15.97694
     227      444        4     0.00000   -0.47247    8.25174    1.61341
     228      444        4     0.00000   -2.22183    8.30174    1.25522
     229      444        4     0.00000   -1.63997    7.52584    2.73390
     230      444        4     0.00000    1.92562   10.45634    6.93395
     231      444        4     0.00000    2.11543    9.48982    5.45374
     232      444        4     0.00000    0.83027    9.08813    6.62336
     233      444        4     0.00000    8.82377    1.00768    4.47158
     234      444        4     0.00000   10.32763    0.07481    4.28682
     235      444        4     0.00000    9.82035    0.62958    5.88291
     236      444        4     0.00000    1.57016    9.76077   10.76538
     237      444        4     0.00000    2.98698   10.63509   10.11173
     238      444        4     0.00000    2.08434   11.30070   11.49269
     239      444        4     0.00000    0.95578   10.37062   14.18329
     240      444        4     0.00000    0.26310    9.96837   15.77415
     241      444        4     0.00000    0.51388   11.66644   15.33243
     242      444        4     0.00000   11.41053    1.76524    2.57845
     243      444        4     0.00000   11.38268    1.05825    0.94471
     244      444        4     0.00000   12.66840    2.19851    1.40160
     245      444        4     0.00000    4.82575   10.30635    3.55419
     246      444        4     0.00000    3.14668   10.69870    3.14995
     247      444        4     0.00000    3.95773   11.51898    4.51117
     248      444        4     0.00000   11.27930    1.76214    9.47688
     249      444        4     0.00000   10.51510    0.24412    8.96575
     250      444        4     0.00000   10.13155    0.94373   10.54791
     251      444        4     0.00000   12.01743    0.65662   13.18936
     252      444        4     0.00000    2.98377   12.44342   14.70788
     253      444        4     0.00000   12.02529    1.68438   14.64810
     254      444        4     0.00000    8.69146    7.45629    2.65468
     255      444        4     0.00000    9.34467    5.82544    2.90405
     256      444        4     0.00000    8.81743    6.79850    4.29674
     257      444        4     0.00000    9.99958    6.07138    6.15177
     258      444        4     0.00000    9.99097    4.61062    5.12741
     259      444        4     0.00000   11.50228    5.51663    5.38967
     260      444        4     0.00000   12.06026    3.62875   10.70353
     261      444        4     0.00000   12.62826    2.83988   12.18441
     262      444        4     0.00000   13.05443    4.52906   11.87272
     263      444        4     0.00000    7.83834    6.27409    9.92453
     264      444        4     0.00000    8.12390    8.03542    9.81631
     265      444        4     0.00000    7.41495    7.33203   11.28931
     266      444        4     0.00000    7.01909    8.38936   -0.06207
     267      444        4     0.00000    6.00684    8.70179    1.35185
     268      444        4     0.00000    7.65774    9.34546    1.30222
     269      444        4     0.00000    6.09189    8.79063    7.98058
     270      444        4     0.00000    6.74597    8.27376    6.41078
     271      444        4     0.00000    5.37708    9.39871    6.47347
     272      444        4     0.00000    9.55182    9.34413    7.69291
     273      444        4     0.00000    8.74496   10.16095    9.05723
     274      444        4     0.00000   -5.91126   11.10042    7.90933

Bonds

       1        1        1       52
       2        2        1       82
       3        2        1       95
       4        2        1       96
       5        2        2       83
       6        2        2       86
       7        2        2      131
       8        2        2      135
       9        1        3       53
      10        2        3       82
      11        2        3       84
      12        2        3       87
      13        2        4       85
      14        2        4       88
      15        2        4      132
      16        3        4      153
      17        1        5       54
      18        2        5       83
      19        2        5       89
      20        3        5      154
      21        1        6       55
      22        2        6       84
      23        2        6       91
      24        3        6      155
      25        1        7       56
      26        2        7       85
      27        2        7       92
      28        2        7      104
      29        2        8       86
      30        2        8       87
      31        2        8      109
      32        3        8      156
      33        2        9       88
      34        2        9       89
      35        2        9       90
      36        2        9      114
      37        2       10       93
      38        2       10       97
      39        2       10      143
      40        2       10      146
      41        2       11       90
      42        2       11       98
      43        2       11      110
      44        3       11      157
      45        2       12       91
      46        2       12       92
      47        2       12       94
      48        3       12      158
      49        1       13       57
      50        2       13      101
      51        2       13      145
      52        3       13      159
      53        2       14       93
      54        2       14       94
      55        2       14      102
      56        2       14      115
      57        2       15       95
      58        2       15       99
      59        2       15      149
      60        3       15      160
      61        1       16       58
      62        1       16       59
      63        2       16       96
      64        2       16      130
      65        2       17       97
      66        2       17       98
      67        2       17      100
      68        2       17      123
      69        2       18       99
      70        2       18      100
      71        2       18      122
      72        3       18      161
      73        2       19      101
      74        2       19      102
      75        2       19      128
      76        3       19      162
      77        1       20       60
      78        2       20      103
      79        2       20      121
      80        3       20      163
      81        1       21       61
      82        2       21      103
      83        2       21      108
      84        2       21      138
      85        2       22      105
      86        2       22      124
      87        2       22      126
      88        2       22      133
      89        2       23      104
      90        2       23      106
      91        2       23      112
      92        3       23      164
      93        2       24      105
      94        2       24      113
      95        3       24      165
      96        3       24      166
      97        2       25      107
      98        2       25      129
      99        2       25      137
     100        3       25      167
     101        2       26      106
     102        2       26      107
     103        2       26      134
     104        3       26      168
     105        1       27       62
     106        2       27      108
     107        2       27      111
     108        2       27      139
     109        2       28      109
     110        2       28      110
     111        2       28      116
     112        2       28      119
     113        2       29      111
     114        2       29      120
     115        3       29      169
     116        3       29      170
     117        1       30       63
     118        2       30      112
     119        2       30      113
     120        2       30      117
     121        1       31       64
     122        2       31      114
     123        2       31      115
     124        2       31      118
     125        2       32      116
     126        2       32      117
     127        2       32      140
     128        3       32      171
     129        2       33      118
     130        2       33      127
     131        3       33      172
     132        3       33      173
     133        1       34       65
     134        2       34      119
     135        2       34      120
     136        3       34      174
     137        1       35       66
     138        2       35      121
     139        2       35      122
     140        2       35      125
     141        2       36      123
     142        2       36      124
     143        3       36      175
     144        3       36      176
     145        1       37       67
     146        1       37       68
     147        2       37      125
     148        2       37      126
     149        1       38       69
     150        2       38      127
     151        2       38      151
     152        3       38      177
     153        1       39       70
     154        2       39      128
     155        2       39      129
     156        2       39      130
     157        1       40       71
     158        1       40       72
     159        2       40      131
     160        2       40      148
     161        2       41      132
     162        2       41      136
     163        2       41      150
     164        3       41      178
     165        1       42       73
     166        2       42      133
     167        2       42      134
     168        2       42      141
     169        2       43      135
     170        2       43      136
     171        2       43      142
     172        3       43      179
     173        1       44       74
     174        2       44      137
     175        2       44      138
     176        2       44      144
     177        1       45       75
     178        2       45      139
     179        2       45      140
     180        3       45      180
     181        1       46       76
     182        2       46      141
     183        2       46      142
     184        2       46      143
     185        1       47       77
     186        2       47      144
     187        2       47      145
     188        2       47      147
     189        1       48       78
     190        2       48      146
     191        2       48      147
     192        3       48      181
     193        1       49       79
     194        2       49      148
     195        2       49      152
     196        3       49      182
     197        1       50       80
     198        1       50       81
     199        2       50      149
     200        2       50      150
     201        2       51      151
     202        2       51      152
     203        3       51      183
     204        3       51      184
     205        4       52      185
     206        4       52      186
     207        4       52      187
     208        4       53      188
     209        4       53      189
     210        4       53      190
     211        4       54      191
     212        4       54      192
     213        4       54      193
     214        4       55      194
     215        4       55      195
     216        4       55      196
     217        4       56      197
     218        4       56      198
     219        4       56      199
     220        4       57      200
     221        4       57      201
     222        4       57      202
     223        4       58      203
     224        4       58      204
     225        4       58      205
     226        4       59      206