331
Timestep=0 Time=0.000000 pbc="T T T" Lattice="15.7087 0 0 -8.20424 13.0868 0 -0.145779 -2.00561 17.5248" Potential_energy=569.6279570993355 Temperature=0 Stress="57613.78569647987 1742.4778386840198 -2049.3682706426753 1742.4778386840198 51669.9655129012 -475.6994139688313 -2049.3682706426753 -475.6994139688313 54377.61800167492" Properties=species:S:1:pos:R:3:vel:R:3:forces:R:3:mass:R:1
Si -0.8035 2.27469 5.19999 0 0 0 -5.19391 -66.9419 -32.721 28.0855
Si 1.46292 0.50843 17.0238 0 0 0 -22.0124 -35.6628 31.45 28.0855
Si -5.8106 11.1834 5.5293 0 0 0 23.3445 52.1684 -23.9814 28.0855
Si 14.0562 0.75248 9.71638 0 0 0 -84.5723 25.1261 36.3452 28.0855
Si 2.19654 -0.9527 12.6487 0 0 0 -9.69744 -21.6679 5.64904 28.0855
Si 1.07685 1.27304 10.9592 0 0 0 -46.5664 -76.0023 30.1521 28.0855
Si 0.11859 4.74729 3.42077 0 0 0 16.1287 -1.40067 -32.7213 28.0855
Si -2.82034 7.23634 5.12748 0 0 0 -27.1662 -4.34999 1.36667 28.0855
Si -0.47512 2.77905 13.1921 0 0 0 -54.4532 -47.8364 11.4107 28.0855
Si -2.37973 6.32009 11.643 0 0 0 -17.7491 65.1994 -6.25837 28.0855
Si 8.01599 8.62504 3.52142 0 0 0 -17.0488 -51.6147 -3.40494 28.0855
Si -2.66444 9.74551 6.83522 0 0 0 -46.8063 34.6801 26.7655 28.0855
Si -6.78652 10.5961 8.49154 0 0 0 -48.2364 63.4357 28.6155 28.0855
Si 10.8788 4.86606 12.9466 0 0 0 -23.5615 -13.5373 54.1641 28.0855
Si -6.88966 9.76241 14.3293 0 0 0 23.2873 -19.1048 -15.1705 28.0855
Si -4.70571 9.96664 10.7345 0 0 0 -72.3519 -14.2476 -24.3675 28.0855
Si 5.27326 0.6754 4.18827 0 0 0 -3.13555 16.3681 -19.7545 28.0855
Si 5.73994 -0.32933 16.5765 0 0 0 -11.4858 30.7246 8.11723 28.0855
Si 8.01471 -0.45479 8.85723 0 0 0 64.567 -41.1804 -21.6218 28.0855
Si 3.89142 1.53784 9.5075 0 0 0 37.1582 -54.2685 -3.26475 28.0855
Si 7.09274 1.52257 6.50792 0 0 0 -4.77898 -25.2147 -32.3046 28.0855
Si 3.67044 0.7912 14.7031 0 0 0 37.0339 -73.4631 26.2751 28.0855
Si 5.16328 4.32298 0.81248 0 0 0 40.7449 60.0156 30.7274 28.0855
Si 3.08299 4.51727 17.1861 0 0 0 22.1038 12.558 49.3134 28.0855
Si 5.59696 3.73308 8.16724 0 0 0 25.7025 -72.0987 15.4315 28.0855
Si -0.06135 5.23718 9.83201 0 0 0 -28.1165 39.445 -38.3163 28.0855
Si 3.89711 5.84524 6.60736 0 0 0 -26.0135 -11.4636 -9.72844 28.0855
Si 5.70359 3.09971 14.1 0 0 0 18.3432 12.6983 -23.1006 28.0855
Si 0.42859 4.48497 15.6214 0 0 0 -48.108 1.19358 80.045 28.0855
Si 2.62083 5.13885 11.4228 0 0 0 37.3727 49.298 0.480231 28.0855
Si -1.06373 8.96496 1.8737 0 0 0 -4.04104 33.1942 -46.4434 28.0855
Si 1.59585 9.52969 17.0561 0 0 0 12.3141 -26.1204 33.9811 28.0855
Si -1.7396 10.1323 9.68112 0 0 0 0.140027 47.5552 -41.5914 28.0855
Si 0.92437 9.47908 4.25054 0 0 0 17.8102 59.0537 20.5419 28.0855
Si 2.05136 7.5474 13.3102 0 0 0 47.7647 59.1264 9.68031 28.0855
Si 10.328 6.04454 15.746 0 0 0 -35.6423 -31.749 33.5924 28.0855
Si 0.5796 9.87764 11.699 0 0 0 38.702 74.1305 -5.32206 28.0855
Si 9.43748 2.03449 4.43104 0 0 0 -6.64918 -65.6292 -26.8449 28.0855
Si 4.9488 12.0948 7.17802 0 0 0 -46.714 -21.2645 32.8336 28.0855
Si 9.85634 1.05502 10.7988 0 0 0 31.0092 -17.415 20.1565 28.0855
Si 12.024 1.62276 6.13663 0 0 0 -4.95182 -21.3358 19.2574 28.0855
Si 8.55438 0.84339 16.7015 0 0 0 -5.54761 20.7051 36.3956 28.0855
Si 12.2659 -0.56453 11.7538 0 0 0 -25.8716 14.6446 31.9701 28.0855
Si 9.9545 4.53051 2.63915 0 0 0 30.5525 10.3532 -12.86 28.0855
Si 10.896 3.16161 8.65131 0 0 0 54.0067 23.8043 -34.0557 28.0855
Si 9.74964 5.35111 6.91308 0 0 0 37.7235 -4.57542 -5.76641 28.0855
Si 5.8436 5.38814 16.0708 0 0 0 21.3499 4.33429 -15.5429 28.0855
Si 3.88689 10.2014 3.61815 0 0 0 36.828 63.9769 19.8864 28.0855
Si 6.55893 8.5584 8.48903 0 0 0 -14.6901 30.597 2.56378 28.0855
Si 6.09032 9.8138 5.68417 0 0 0 -18.9489 26.5669 7.70641 28.0855
Si 4.51112 10.4786 16.5743 0 0 0 12.9882 -14.4631 25.4386 28.0855
C 0.39626 1.78246 6.52203 0 0 0 9.01145 -5.37279 1.76558 12.0107
C -0.8691 1.03021 3.81094 0 0 0 5.83653 -5.01562 -3.59201 12.0107
C 2.39735 1.44889 0.81564 0 0 0 -4.21228 -5.03072 -1.94343 12.0107
C 1.8584 4.24536 2.99404 0 0 0 2.64201 -3.43449 -2.1824 12.0107
C -1.0132 4.6845 1.93802 0 0 0 0.672433 -0.84171 -4.94062 12.0107
C -2.23651 5.89345 6.26897 0 0 0 4.28422 -4.16894 5.12696 12.0107
C -0.92782 1.36271 14.2871 0 0 0 -2.68775 -9.52663 2.86401 12.0107
C -1.99279 7.16867 13.2491 0 0 0 4.26469 -0.772168 5.68684 12.0107
C 8.67049 9.53295 2.02832 0 0 0 3.11003 -3.75891 -4.92058 12.0107
C 11.3525 3.24297 13.7305 0 0 0 0.457139 -6.37379 0.796087 12.0107
C -7.09695 9.73028 16.1836 0 0 0 0.588616 -6.86989 1.10394 12.0107
C 7.45945 8.90494 13.3768 0 0 0 -2.46514 -3.2818 -0.539057 12.0107
C 9.21654 4.88554 12.1116 0 0 0 -6.47231 -4.04056 -0.819088 12.0107
C -5.31863 8.30011 11.2231 0 0 0 -6.64434 -7.30611 1.31789 12.0107
C 3.7554 1.6855 4.55571 0 0 0 -0.368444 2.26987 -0.691131 12.0107
C -2.68057 11.0709 17.3147 0 0 0 -2.11265 -8.41556 1.22525 12.0107
C 3.74026 0.26744 8.17338 0 0 0 2.14796 -6.25905 0.0370321 12.0107
C 5.1137 1.15197 10.8455 0 0 0 1.88918 -4.45483 2.75911 12.0107
C 6.29686 1.4221 2.83101 0 0 0 -0.184465 6.93389 -4.78524 12.0107
C 2.3724 7.33203 1.0813 0 0 0 -8.65295 9.38972 11.0715 12.0107
C 6.82655 4.05745 9.5105 0 0 0 7.81504 -2.24863 6.65537 12.0107
C 0.19185 6.78723 8.8525 0 0 0 2.72131 10.0351 -1.62586 12.0107
C 2.38989 4.74703 6.67183 0 0 0 -1.57218 -6.81133 -1.42351 12.0107
C 4.51897 6.1286 4.86734 0 0 0 -1.54985 0.0945032 -2.95747 12.0107
C 7.11998 2.03821 13.5404 0 0 0 1.94191 -4.27395 -3.94979 12.0107
C 3.87931 6.17289 10.5288 0 0 0 3.37884 4.60565 -4.44665 12.0107
C -2.52775 10.0382 2.29913 0 0 0 -0.791838 4.52132 4.66789 12.0107
C 1.33729 12.3759 1.15126 0 0 0 -5.10559 1.35664 -0.183126 12.0107
C 1.11549 8.43642 5.77011 0 0 0 1.64229 -3.94237 5.58585 12.0107
C 0.37538 11.2239 4.59986 0 0 0 -2.27877 7.00412 3.73858 12.0107
C 1.15943 11.6119 8.11681 0 0 0 9.32137 -4.80203 -5.08061 12.0107
C 0.11576 9.58029 15.9307 0 0 0 -6.12778 -1.21557 3.31335 12.0107
C -4.27751 7.20571 16.6914 0 0 0 0.986502 1.4669 0.81543 12.0107
C -0.17724 11.1541 12.8152 0 0 0 -2.82785 5.32197 6.60189 12.0107
C 10.0842 0.4195 15.7363 0 0 0 6.04235 1.66401 -2.69775 12.0107
C 11.3543 3.70147 1.72565 0 0 0 1.08564 -1.77771 -0.698285 12.0107
C 8.10791 5.54363 6.07203 0 0 0 -2.52185 7.61501 -5.80064 12.0107
C 4.84783 9.76096 2.10334 0 0 0 4.46845 -0.632501 -6.68405 12.0107
C 5.22566 9.27786 9.56357 0 0 0 -2.29111 -0.632358 4.75965 12.0107
C 10.2124 6.90598 7.83243 0 0 0 -4.27627 6.16332 -0.452004 12.0107
C 3.72777 8.34352 13.2656 0 0 0 4.84516 -0.662227 4.24375 12.0107
C 5.30839 8.78365 16.4963 0 0 0 0.00263502 4.27234 -3.09051 12.0107
C 13.2031 0.247928 0.683237 0 0 0 4.35562 1.22304 0.418636 12.0107
C 13.3467 -1.5336 15.1933 0 0 0 7.28691 0.773838 -1.78932 12.0107
H 0.29844 -0.25876 16.4993 0 0 0 8.87668 2.46443 9.21145 1.00794
H -6.73959 12.1185 4.83628 0 0 0 3.60063 -3.78121 4.22265 1.00794
H -4.56313 11.9074 5.86753 0 0 0 -8.08754 -5.56781 -1.36993 1.00794
H 13.1982 1.94487 9.64146 0 0 0 9.21486 -5.28293 4.87838 1.00794
H 1.10073 3.78305 0.07676 0 0 0 2.10351 -6.62194 -1.41448 1.00794
H 0.12037 6.12631 3.98179 0 0 0 0.700079 -7.24593 -7.43803 1.00794
H -4.30777 7.35524 5.07471 0 0 0 9.36893 -3.22432 -0.199004 1.00794
H -2.34065 7.03656 3.73217 0 0 0 -3.34753 -4.62143 10.241 1.00794
H -1.63906 3.24772 12.4055 0 0 0 2.28625 -4.64359 3.77153 1.00794
H -2.74616 7.26168 10.5518 0 0 0 5.63806 -2.24823 8.077 1.00794
H 9.13868 7.94455 4.22344 0 0 0 -3.37611 6.43954 -6.59001 1.00794
H 7.02626 7.58552 3.10378 0 0 0 6.75502 6.01579 0.854251 1.00794
H -4.1294 9.64772 7.02666 0 0 0 16.1786 -3.54677 4.68596 1.00794
H -2.22587 11.1062 6.44487 0 0 0 -9.66038 -5.11181 7.42448 1.00794
H -7.41643 11.8702 8.86909 0 0 0 -0.0284529 -2.64886 -0.51026 1.00794
H -5.57417 9.11644 14.0403 0 0 0 -9.14146 4.8162 4.9227 1.00794
H -3.33245 12.3737 3.82509 0 0 0 -4.87299 16.6524 3.64829 1.00794
H -5.45689 10.0605 4.61714 0 0 0 3.19806 9.06153 7.05131 1.00794
H 6.38302 5.17037 0.7523 0 0 0 -4.61213 -4.15839 1.03932 1.00794
H 4.80976 4.0014 2.21776 0 0 0 2.13094 3.89045 -4.83304 1.00794
H -0.58794 4.11929 9.00133 0 0 0 0.411701 8.71436 0.194387 1.00794
H 3.61651 7.15463 7.2685 0 0 0 -0.766969 -6.70916 -6.17992 1.00794
H -0.40248 3.66633 16.5526 0 0 0 4.65164 7.34411 -11.354 1.00794
H 5.34211 4.13583 13.0933 0 0 0 6.41878 -5.3397 2.28231 1.00794
H 3.17852 3.89091 11.9861 0 0 0 1.56249 3.2434 -4.00529 1.00794
H -0.28426 9.61076 0.77162 0 0 0 -5.99024 -6.08919 9.50209 1.00794
H -1.49355 7.62569 1.37633 0 0 0 -0.337221 8.53005 2.178 1.00794
H 2.01806 8.11834 17.3097 0 0 0 -5.2087 19.1966 -8.8037 1.00794
H 0.08764 5.92299 15.7727 0 0 0 1.56961 -5.85996 1.56932 1.00794
H 1.57276 7.40103 14.7046 0 0 0 8.61317 -1.11749 -5.52013 1.00794
H 10.3647 4.68023 16.3664 0 0 0 1.70141 8.73561 -4.26767 1.00794
H 8.90587 6.51052 15.7961 0 0 0 10.1087 -3.38282 -0.828513 1.00794
H 1.81494 10.37 11.0287 0 0 0 -7.42427 -0.745426 7.61071 1.00794
H 9.1747 0.91487 3.51514 0 0 0 1.86305 2.88469 3.50717 1.00794
H 4.01003 11.0993 7.72039 0 0 0 2.23162 1.30234 0.706169 1.00794
H 9.58113 1.46351 12.1841 0 0 0 0.73441 -2.52247 -1.60085 1.00794
H 8.21789 2.28983 16.5766 0 0 0 2.18797 -6.97643 -0.642648 1.00794
H 8.85874 2.53587 0.62865 0 0 0 -3.34946 2.89184 -11.4273 1.00794
H 12.121 0.12492 13.0595 0 0 0 -1.41018 -3.85198 -6.03242 1.00794
H 4.02713 11.0501 11.9015 0 0 0 -0.38902 5.05486 0.082258 1.00794
H 10.4761 5.67747 3.43968 0 0 0 -1.93961 -7.00377 -5.17322 1.00794
H 8.91143 5.05245 1.708 0 0 0 7.47905 -1.72079 3.09566 1.00794
H 12.0553 3.96993 9.07823 0 0 0 -2.36102 1.07288 -1.76644 1.00794
H 10.7822 4.97298 5.90267 0 0 0 -9.05763 4.70411 4.03398 1.00794
H 6.00465 6.36942 14.9662 0 0 0 2.23356 -5.73746 6.33281 1.00794
H 6.78263 5.65514 17.1901 0 0 0 -4.00055 0.399949 -3.41886 1.00794
H 3.76537 11.6809 3.77239 0 0 0 0.306574 -7.46486 -3.54075 1.00794
H 6.77689 7.11616 8.74191 0 0 0 -5.12567 5.10979 4.53126 1.00794
H 1.4152 1.79416 6.11481 0 0 0 -8.07954 1.33777 -0.833185 1.00794
H 0.18808 0.76715 6.88532 0 0 0 -2.96273 -6.28838 -1.01468 1.00794
H 0.36455 2.46395 7.38218 0 0 0 -3.5915 7.41658 2.55349 1.00794
H 14.5678 0.03216 4.18329 0 0 0 -2.68909 -3.93436 5.73039 1.00794
H 0.11685 0.94202 3.32863 0 0 0 4.71753 2.57403 0.690913 1.00794
H 14.1085 1.31984 3.0439 0 0 0 -4.88034 7.39555 0.969912 1.00794
H 2.74667 0.49844 0.39457 0 0 0 -4.42566 7.59864 0.667786 1.00794
H 1.62153 1.20381 1.55867 0 0 0 -1.86704 -1.2207 1.75289 1.00794
H 3.23325 1.93557 1.33164 0 0 0 5.07179 6.55013 -1.49626 1.00794
H 1.89746 3.17367 2.76655 0 0 0 -7.00379 0.526429 2.24827 1.00794
H 2.53104 4.43258 3.8386 0 0 0 -1.21756 2.76735 4.04635 1.00794
H 2.246 4.78322 2.12169 0 0 0 -3.26881 3.28981 -2.05415 1.00794
H -1.99303 5.11078 2.1869 0 0 0 -2.35527 4.70267 5.98273 1.00794
H -1.1611 3.65479 1.58028 0 0 0 2.1807 -7.68798 2.04507 1.00794
H -0.60173 5.26909 1.10324 0 0 0 4.44221 3.224 4.94854 1.00794
H -1.13969 5.89537 6.3185 0 0 0 6.78627 2.60906 -0.961754 1.00794
H -2.54756 4.89888 5.92826 0 0 0 -6.0743 -0.146973 -5.79113 1.00794
H -2.62611 6.04924 7.28469 0 0 0 -1.47842 2.24822 3.82236 1.00794
H -0.03256 0.90623 14.7261 0 0 0 1.70738 5.88521 -11.9275 1.00794
H -1.42734 0.58641 13.6955 0 0 0 1.77562 0.372727 -6.32189 1.00794
H -1.60256 1.65781 15.1032 0 0 0 -3.83078 7.39609 2.95596 1.00794
H -1.14062 7.84822 13.143 0 0 0 -6.63899 0.974753 -0.644712 1.00794
H -1.73284 6.42303 14.015 0 0 0 0.180991 -5.73793 2.15895 1.00794
H -2.86433 7.73438 13.6067 0 0 0 -5.39804 4.61915 -0.406801 1.00794
H 7.89115 10.1097 1.51318 0 0 0 -4.58641 2.12574 0.448234 1.00794
H 9.06015 8.7892 1.31552 0 0 0 1.91577 -3.77663 -2.47543 1.00794
H -6.22032 10.2156 2.29701 0 0 0 4.31572 3.58386 4.6587 1.00794
H 12.2118 3.39309 14.401 0 0 0 4.504 3.3766 2.9006 1.00794
H 11.6401 2.48814 12.9891 0 0 0 0.91394 0.0940793 -9.0813 1.00794
H 10.5279 2.83855 14.3326 0 0 0 -6.90631 3.85477 1.24177 1.00794
H 8.39104 8.70772 16.5187 0 0 0 -1.43569 -5.51565 -0.216062 1.00794
H 7.81595 10.3953 16.5406 0 0 0 -5.78018 4.85323 -2.92267 1.00794
H -6.15418 10.0353 16.6578 0 0 0 3.14905 -5.54782 -5.91795 1.00794
H 7.41718 7.83076 13.61 0 0 0 3.77705 -5.03846 3.90555 1.00794
H 7.62447 9.01364 12.2955 0 0 0 -2.85478 4.69637 -1.392 1.00794
H 6.4796 9.34719 13.5996 0 0 0 -0.834378 6.37601 -0.787805 1.00794
H 8.41774 4.66455 12.835 0 0 0 -1.59108 -1.10299 5.8287 1.00794
H 9.15237 4.15711 11.2949 0 0 0 3.80747 -4.09618 -2.00705 1.00794
H 9.02139 5.88245 11.6919 0 0 0 0.0796531 4.60914 -1.54311 1.00794
H -4.98292 7.54212 10.5076 0 0 0 1.39328 -1.57316 -3.03922 1.00794
H 9.29185 8.29988 11.218 0 0 0 0.750488 -0.897456 -5.02882 1.00794
H -4.98051 8.01178 12.2255 0 0 0 5.57074 1.34666 3.16711 1.00794
H 2.97285 1.51564 3.80416 0 0 0 -0.514934 -6.49402 -4.10826 1.00794
H 3.98953 2.75799 4.57459 0 0 0 7.66126 3.79928 -0.168238 1.00794
H 3.35689 1.40233 5.53796 0 0 0 9.88034 -3.91469 0.261344 1.00794
H -2.71991 10.3398 16.4949 0 0 0 -1.10629 -4.12901 -4.52612 1.00794
H -3.46819 12.9972 0.36029 0 0 0 3.50289 -0.580578 1.8814 1.00794
H -1.7063 12.7988 0.45132 0 0 0 8.04749 2.43615 3.55439 1.00794
H 3.672 -0.74275 8.59008 0 0 0 10.5666 13.1523 1.93079 1.00794
H 4.60012 0.29063 7.49333 0 0 0 3.63368 2.17189 2.49045 1.00794
H 2.82966 0.46676 7.5901 0 0 0 -4.36227 1.54989 0.560282 1.00794
H 4.95358 0.15373 11.2725 0 0 0 -3.99912 -7.27359 -1.01484 1.00794
H 4.96994 1.89009 11.6458 0 0 0 -3.13042 1.64106 -2.71568 1.00794
H 6.15086 1.20788 10.4965 0 0 0 0.099656 2.91858 -6.54931 1.00794
H 5.6779 1.57619 1.94189 0 0 0 -5.44815 -6.76487 11.1316 1.00794
H 7.14332 0.7805 2.55443 0 0 0 0.555472 -7.68093 0.534398 1.00794
H 6.69535 2.40467 3.12476 0 0 0 -1.59831 4.42986 5.1943 1.00794
H 2.10555 8.36859 0.8362 0 0 0 -0.601829 -5.86306 1.15375 1.00794
H 2.98928 7.35558 1.9881 0 0 0 9.15722 -3.86558 2.06275 1.00794
H 1.44279 6.80088 1.32955 0 0 0 -4.54292 -3.38216 -2.57748 1.00794
H 7.59231 4.77784 9.20208 0 0 0 0.211455 7.17219 -4.93333 1.00794
H 7.34526 3.12932 9.78641 0 0 0 0.763648 -6.6857 -0.259532 1.00794
H 6.31835 4.44625 10.4038 0 0 0 -4.08447 2.32276 4.39965 1.00794
H -0.74907 7.23213 8.50824 0 0 0 -7.38988 -7.26923 0.308994 1.00794
H 0.818 6.57721 7.97638 0 0 0 1.94701 -1.33781 -2.00759 1.00794
H 0.70437 7.54404 9.46085 0 0 0 5.77414 -0.450032 4.89805 1.00794
H 2.59539 3.78791 6.17833 0 0 0 4.92988 -1.34786 -1.74271 1.00794
H 1.51133 5.18962 6.18293 0 0 0 -0.764168 6.17092 -2.69851 1.00794
H 2.1336 4.52291 7.71647 0 0 0 0.798836 0.550433 5.84299 1.00794
H 4.74054 5.17817 4.36007 0 0 0 0.980542 -6.54845 1.7986 1.00794
H 5.44292 6.72043 4.88604 0 0 0 5.4047 3.77383 3.15794 1.00794
H 3.77582 6.67567 4.26932 0 0 0 -6.50173 3.08004 -0.308661 1.00794
H 7.17709 2.02548 12.446 0 0 0 0.734915 2.98721 -5.11296 1.00794
H 7.03094 1.00094 13.8876 0 0 0 -5.05189 -3.9082 1.65707 1.00794
H 8.06034 2.45451 13.9268 0 0 0 4.5949 3.533 2.27152 1.00794
H 3.42879 7.13664 10.2517 0 0 0 -6.45015 1.50288 0.0828584 1.00794
H 4.23456 5.70148 9.60713 0 0 0 -7.83954 -0.779339 8.62047 1.00794
H 4.74994 6.37742 11.1691 0 0 0 3.52456 -1.74189 6.03813 1.00794
H -3.2732 9.49967 2.90078 0 0 0 -2.23487 -7.19608 2.32896 1.00794
H -3.01427 10.4135 1.38937 0 0 0 2.47637 3.01643 -3.41743 1.00794
H -2.20006 10.908 2.8835 0 0 0 11.4628 -3.37809 -2.3185 1.00794
H 9.35245 0.361378 0.996007 0 0 0 0.638647 1.52473 -3.67485 1.00794
H 2.13616 12.2785 1.89827 0 0 0 8.51672 -3.57875 -0.771034 1.00794
H 0.425789 11.9323 1.57559 0 0 0 -4.00512 -3.06792 -7.85254 1.00794
H 1.95754 8.79825 6.37771 0 0 0 4.16705 5.24861 2.39467 1.00794
H 1.3337 7.39974 5.47862 0 0 0 1.61768 -1.87162 -3.58939 1.00794
H 0.21157 8.42752 6.38939 0 0 0 -6.30427 4.12243 1.02225 1.00794
H 0.21057 11.7776 3.66691 0 0 0 -2.80799 -2.73771 1.68744 1.00794
H 1.14978 11.7658 5.16191 0 0 0 6.01806 -0.0394275 2.78175 1.00794
H -0.55582 11.2593 5.17953 0 0 0 2.36533 -4.28035 -2.90069 1.00794
H 0.75618 10.9021 7.38295 0 0 0 -6.09534 -3.0846 -1.26529 1.00794
H 1.69086 11.0409 8.88972 0 0 0 0.765572 -1.67406 3.60433 1.00794
H 10.0926 -0.83246 7.60512 0 0 0 0.207632 7.32802 -1.33823 1.00794
H 0.33837 9.18781 14.9334 0 0 0 0.838228 3.83204 -0.327727 1.00794
H -0.2529 10.609 15.8264 0 0 0 2.65411 3.23642 0.0100439 1.00794
H -0.68737 8.96278 16.3577 0 0 0 -3.48516 -3.16688 2.83541 1.00794
H -3.24841 6.81913 16.725 0 0 0 5.10049 -4.45867 -2.0935 1.00794
H -4.49363 9.32055 0.19828 0 0 0 -7.27165 -3.28629 2.33507 1.00794
H -4.26029 8.1994 16.222 0 0 0 -1.84573 4.77859 -5.00088 1.00794
H 7.7271 -1.05162 12.23 0 0 0 -1.17569 3.32768 -3.35447 1.00794
H 0.524588 11.4799 13.5957 0 0 0 8.18623 -0.150899 1.76698 1.00794
H -1.07481 10.7571 13.3115 0 0 0 -5.14171 -5.42757 0.555475 1.00794
H 10.9294 1.04687 16.0562 0 0 0 3.00545 3.84266 4.92639 1.00794
H 9.92169 0.59834 14.6638 0 0 0 -4.47111 -0.588697 -5.42852 1.00794
H 10.3629 -0.63468 15.8704 0 0 0 -6.26558 5.10741 0.678038 1.00794
H 11.8069 4.37882 0.98677 0 0 0 -2.06551 6.19651 -4.33995 1.00794
H 11.0011 2.80332 1.20274 0 0 0 -1.34855 -4.30314 0.0251944 1.00794
H 12.1374 3.3969 2.43272 0 0 0 1.44084 -3.1421 7.54888 1.00794
H 7.74941 4.60188 5.64341 0 0 0 0.918756 -7.2851 -1.6816 1.00794
H 8.23694 6.26253 5.2502 0 0 0 -2.35579 -3.81792 0.740683 1.00794
H 7.33743 5.93739 6.74612 0 0 0 2.50657 2.77227 5.97253 1.00794
H 5.15642 8.70667 2.10485 0 0 0 -1.65707 -6.69807 3.40291 1.00794
H 5.74701 10.3866 2.02886 0 0 0 0.463932 5.66863 4.57396 1.00794
H 4.23574 9.93037 1.20958 0 0 0 -8.56918 1.3977 4.25329 1.00794
H 5.36563 8.89378 10.5846 0 0 0 5.02582 -1.16664 0.271034 1.00794
H 4.21535 9.01164 9.22751 0 0 0 -4.08134 -2.33406 -7.89309 1.00794
H 5.31097 10.3715 9.61242 0 0 0 2.89883 4.51936 -0.944193 1.00794
H 10.2135 7.78015 7.16796 0 0 0 -1.99757 0.978658 -7.40776 1.00794
H -4.50871 6.83051 8.30982 0 0 0 4.56911 -4.71093 0.312473 1.00794
H 9.46855 7.09262 8.61999 0 0 0 -5.1267 -2.31795 2.3048 1.00794
H 4.03092 8.60535 12.2443 0 0 0 -5.98793 -1.10863 -2.49219 1.00794
H 4.48527 7.6737 13.6956 0 0 0 0.750677 -6.06493 1.32566 1.00794
H 3.70295 9.26452 13.864 0 0 0 -4.1503 1.65874 0.606334 1.00794
H 6.07649 8.64496 17.2667 0 0 0 4.05817 5.04366 4.83645 1.00794
H 5.78116 8.62931 15.5201 0 0 0 -0.757533 2.12379 0.171899 1.00794
H 4.55382 7.99653 16.6236 0 0 0 -7.13292 3.18506 -3.57219 1.00794
H 14.2901 0.361668 0.816587 0 0 0 5.96178 -1.01426 -2.72127 1.00794
H 4.61727 12.7781 1.55025 0 0 0 -5.29829 -8.11588 0.0415439 1.00794
H 12.7603 1.25445 0.706587 0 0 0 -3.66577 3.60316 -4.57425 1.00794
H 4.97034 11.088 14.2122 0 0 0 -0.705211 -4.01611 0.562881 1.00794
H 14.4253 -1.34871 15.2916 0 0 0 3.70755 -4.18034 3.02972 1.00794
H 12.8436 -0.558922 15.1988 0 0 0 -6.48204 3.32201 5.67556 1.00794
O -0.10484 1.21412 9.83182 0 0 0 36.1752 39.7011 -73.7789 15.9994
O 1.19097 -0.24561 11.5823 0 0 0 -50.5806 -43.4597 -29.0158 15.9994
O -0.44258 3.75922 4.61773 0 0 0 -10.4532 56.1808 51.1996 15.9994
O 0.7038 2.31312 12.1471 0 0 0 61.0735 61.6548 20.4273 15.9994
O -2.22265 8.70325 5.65469 0 0 0 45.4904 3.40396 -49.188 15.9994
O -6.51235 10.5717 6.88634 0 0 0 -35.8058 -67.921 -38.0508 15.9994
O -3.67061 5.31578 11.8726 0 0 0 -5.80916 -45.3188 -75.2373 15.9994
O -6.82828 11.3499 13.819 0 0 0 -49.0495 25.8225 53.4776 15.9994
O -5.38037 10.4049 9.30358 0 0 0 62.4752 5.26508 -49.5903 15.9994
O -5.04907 11.0809 11.8758 0 0 0 73.1703 9.27368 29.0056 15.9994
O 2.42639 1.74222 10.226 0 0 0 18.471 79.0906 -10.1205 15.9994
O 6.19945 0.55417 5.55815 0 0 0 -12.9462 -73.999 4.61238 15.9994
O 7.47635 0.68046 7.8324 0 0 0 -8.27535 40.4583 40.5574 15.9994
O 3.11285 0.22561 13.291 0 0 0 23.8448 53.5443 -61.7882 15.9994
O 4.80674 -0.26271 15.2324 0 0 0 11.9177 -53.2184 -39.6426 15.9994
O 2.45813 0.89009 15.7721 0 0 0 -25.8009 71.6725 6.2575 15.9994
O 5.43198 2.89878 0.04849 0 0 0 -5.35082 -33.5991 46.0542 15.9994
O 3.88617 5.08774 0.13117 0 0 0 -59.2605 -58.864 -32.7599 15.9994
O 4.28297 2.97312 8.78652 0 0 0 -61.716 36.0696 3.5583 15.9994
O 6.2431 2.83372 6.94007 0 0 0 -27.8706 53.1565 -60.3767 15.9994
O -1.09813 5.46009 11.0917 0 0 0 31.4741 -48.4224 65.1766 15.9994
O 5.10451 5.13533 7.49883 0 0 0 44.3187 75.411 13.5745 15.9994
O 4.33704 2.24851 14.439 0 0 0 -56.1585 67.2374 7.39301 15.9994
O 0.09658 4.03505 14.0888 0 0 0 13.6865 60.8506 -59.1838 15.9994
O 2.0169 4.24466 15.9732 0 0 0 33.7804 -38.2509 -69.2525 15.9994
O 1.38951 4.7437 10.4161 0 0 0 15.4967 -77.7707 -33.263 15.9994
O -1.92808 9.3392 8.26158 0 0 0 25.6531 -62.8387 -13.5114 15.9994
O -1.44971 11.709 9.35272 0 0 0 -61.7298 41.0985 4.13868 15.9994
O -3.08376 10.0234 10.5736 0 0 0 21.2595 -25.187 85.7012 15.9994
O -0.08579 8.74799 3.17753 0 0 0 -15.1899 -79.88 31.8286 15.9994
O 2.04744 6.04589 12.6774 0 0 0 -38.3847 -65.3738 42.5346 15.9994
O 10.8181 5.98255 14.1771 0 0 0 37.491 58.8849 -31.2801 15.9994
O -0.49843 9.48304 10.5073 0 0 0 25.9546 -73.8913 -10.6601 15.9994
O 0.96994 8.5065 12.5051 0 0 0 -54.0541 -53.1641 -2.54425 15.9994
O 8.44604 1.98336 5.72418 0 0 0 47.962 38.0697 64.2891 15.9994
O 13.8719 -0.15975 8.37582 0 0 0 67.116 -2.85677 -15.0831 15.9994
O 8.5148 0.36685 10.193 0 0 0 -58.6762 -2.09875 42.4358 15.9994
O 13.3951 2.43617 5.8788 0 0 0 24.2733 72.8062 29.1598 15.9994
O 10.9931 1.91407 4.91578 0 0 0 45.9148 32.8309 -73.3543 15.9994
O 12.3229 0.01115 6.19046 0 0 0 -30.7648 -32.6226 -62.4168 15.9994
O 7.30109 -0.09244 16.1391 0 0 0 31.8466 -31.1232 -53.018 15.9994
O 13.6854 -0.14298 11.047 0 0 0 55.2695 -22.9606 34.0179 15.9994
O 11.0439 -0.07556 10.7687 0 0 0 -2.5861 -45.3646 -59.473 15.9994
O 9.21029 3.45074 3.65518 0 0 0 -69.9635 41.8357 4.9115 15.9994
O 10.2906 2.37213 9.95022 0 0 0 -11.3465 68.0654 48.0369 15.9994
O 11.3586 2.03449 7.55929 0 0 0 -21.3846 -62.4153 40.8272 15.9994
O 9.72179 4.10413 8.0334 0 0 0 -70.9809 8.22624 -4.29887 15.9994
O 6.17432 3.89122 15.4768 0 0 0 40.7999 -39.4385 28.6185 15.9994
O 4.29734 5.4725 16.6199 0 0 0 -30.5029 77.2388 -0.23804 15.9994
O 2.40415 9.54181 3.5089 0 0 0 -22.5843 -45.2117 -65.7669 15.9994
O 7.95791 9.33648 8.87777 0 0 0 30.9141 -51.9328 56.6399 15.9994
O 7.27968 9.67766 4.57881 0 0 0 49.0264 62.1351 -26.736 15.9994
O 4.63838 9.60473 4.97088 0 0 0 -51.6129 -51.6515 17.6133 15.9994
O 6.25312 8.71297 6.87126 0 0 0 -7.42717 -82.2425 -17.7561 15.9994
O 6.13086 11.3294 6.32722 0 0 0 45.4066 26.1721 -9.86809 15.9994
O 2.87046 10.311 16.3332 0 0 0 -14.6634 23.9004 -49.5553 15.9994
331
Timestep=51 Time=51.000000 pbc="T T T" Lattice="15.7087 0 0 -8.20424 13.0868 0 -0.145779 -2.00561 17.5248" Potential_energy=-202.0842506689052 Temperature=0 Stress="8315.070031666426 -271.29188336621826 -1070.4284085083327 -271.29188336621826 13096.776117274867 -492.4768890086863 -1070.4284085083327 -492.4768890086863 4238.209383768738" Properties=species:S:1:pos:R:3:vel:R:3:forces:R:3:mass:R:1
Si -0.967413 2.61675 5.43243 0 0 0 -0.509727 -1.89511 -0.4821 28.0855
Si 1.2968 0.172586 16.7311 0 0 0 0.128421 -0.621574 0.572859 28.0855
Si -6.03404 11.4216 5.60288 0 0 0 -1.05782 -0.662785 0.197901 28.0855
Si 14.0819 0.624092 9.66203 0 0 0 -0.886095 0.132764 0.949673 28.0855
Si 2.28824 -0.782074 12.4601 0 0 0 1.35974 -2.84178 2.12629 28.0855
Si 1.03445 1.41578 10.8617 0 0 0 -0.505505 -4.03594 2.45546 28.0855
Si 0.0214411 4.68728 3.44016 0 0 0 -1.43099 -1.45781 1.19418 28.0855
Si -2.94453 7.31162 5.19406 0 0 0 0.170543 1.21117 -0.725105 28.0855
Si -0.146722 2.8816 13.1524 0 0 0 -1.058 0.577969 -0.0982192 28.0855
Si -2.26739 6.39732 11.7995 0 0 0 -0.200328 2.55863 0.0199235 28.0855
Si 7.98909 8.48702 3.49869 0 0 0 0.00923337 -1.44698 -0.812062 28.0855
Si -2.8825 9.76308 6.79891 0 0 0 0.814534 0.659361 -0.782058 28.0855
Si -6.6226 10.4446 8.42626 0 0 0 2.00273 -0.893972 -0.932384 28.0855
Si 11.0371 4.94047 12.9264 0 0 0 -0.117524 -0.74033 0.457615 28.0855
Si -6.9072 9.91605 14.0191 0 0 0 1.01879 -0.586059 0.885425 28.0855
Si -4.53599 10.083 10.6959 0 0 0 -0.392125 -0.440128 -0.837288 28.0855
Si 5.53826 0.499603 4.47513 0 0 0 -1.09525 0.442658 -1.37706 28.0855
Si 5.59039 -0.0816071 16.597 0 0 0 0.141219 -2.10922 1.51383 28.0855
Si 7.73359 -0.292287 9.04453 0 0 0 1.41526 1.34445 -0.343112 28.0855
Si 3.68689 1.87173 9.31505 0 0 0 -0.527263 0.584163 2.05831 28.0855
Si 7.19595 1.56772 6.74219 0 0 0 -0.266462 1.72677 -0.886583 28.0855
Si 3.4662 1.01213 14.6959 0 0 0 4.16659 -3.02713 0.825057 28.0855
Si 5.01607 4.37497 0.726728 0 0 0 0.31583 1.14323 -1.35325 28.0855
Si 3.36368 4.61162 17.0367 0 0 0 1.6559 -1.3343 0.000986292 28.0855
Si 5.61988 3.86757 7.92294 0 0 0 -2.31495 1.7936 2.61642 28.0855
Si -0.0523543 5.29275 10.1065 0 0 0 0.972525 -0.776152 -1.01636 28.0855
Si 4.06641 5.97647 6.42034 0 0 0 1.65321 -0.0598566 0.725129 28.0855
Si 5.76844 3.0459 14.1745 0 0 0 -1.58494 -2.36659 -0.973283 28.0855
Si 0.758561 4.35503 15.6458 0 0 0 1.04943 -0.344627 -0.212909 28.0855
Si 2.69324 5.27783 11.3202 0 0 0 1.62501 0.349947 0.432156 28.0855
Si -0.832655 8.88687 1.95955 0 0 0 -0.147553 1.05937 0.0121307 28.0855
Si 1.71637 9.48703 17.0224 0 0 0 -0.32662 0.567634 -0.166249 28.0855
Si -1.70967 10.1527 9.5246 0 0 0 1.55654 2.27828 -1.44308 28.0855
Si 0.896835 9.30863 4.35013 0 0 0 0.0786909 1.29328 -0.309297 28.0855
Si 1.81715 7.47028 13.1639 0 0 0 -0.054512 0.448725 -0.101243 28.0855
Si 10.4365 5.95636 15.6655 0 0 0 0.765611 -0.201375 -0.459762 28.0855
Si 0.474795 9.74643 11.6433 0 0 0 1.12741 0.795545 -1.46381 28.0855
Si 9.59368 1.8848 4.82078 0 0 0 0.369895 1.7693 -2.28802 28.0855
Si 5.29538 12.213 7.13101 0 0 0 0.788512 0.639582 -0.173761 28.0855
Si 9.85902 0.727186 10.8997 0 0 0 -0.753707 -0.924442 -0.911372 28.0855
Si 12.1041 1.62998 6.42035 0 0 0 -0.56268 -2.00325 -1.39784 28.0855
Si 8.33895 0.988835 17.0188 0 0 0 -0.940273 -0.0832613 1.72171 28.0855
Si 12.3063 -0.80843 11.4477 0 0 0 -0.172348 -0.391047 1.17535 28.0855
Si 9.80661 4.20451 2.94171 0 0 0 1.01967 -0.681914 1.22001 28.0855
Si 10.6526 2.83453 8.80019 0 0 0 -0.248575 -0.79278 0.256815 28.0855
Si 9.84713 5.04486 7.03035 0 0 0 -1.16008 -0.729749 0.120831 28.0855
Si 6.14664 5.33018 15.9787 0 0 0 -1.67783 0.324816 1.31456 28.0855
Si 3.74934 10.0643 3.88456 0 0 0 -0.455294 -0.405216 0.510448 28.0855
Si 6.84843 8.4783 8.34301 0 0 0 -0.203814 -0.696115 0.499482 28.0855
Si 6.1749 9.70463 5.60052 0 0 0 1.97879 -1.39034 0.0141213 28.0855
Si 4.45057 10.5396 16.4774 0 0 0 -0.237574 -0.401406 -0.202515 28.0855
C 0.604643 2.07425 6.27138 0 0 0 0.982693 1.29178 0.337037 12.0107
C 14.4095 1.43953 3.99664 0 0 0 0.494714 -0.255825 -0.325119 12.0107
C 2.4224 1.31262 0.525835 0 0 0 -1.5639 0.556748 -1.67806 12.0107
C 1.60745 3.76615 3.11198 0 0 0 0.318652 -0.377849 0.44353 12.0107
C -1.11024 4.56132 1.9618 0 0 0 -0.461493 -0.255379 0.553358 12.0107
C -2.19587 6.30635 6.56949 0 0 0 -0.199774 -0.821087 -0.282553 12.0107
C -0.922616 1.465 14.0593 0 0 0 0.522167 1.24238 -0.532364 12.0107
C -2.19244 7.32167 13.4345 0 0 0 0.191092 -0.516131 -0.0473985 12.0107
C 8.66221 9.04109 1.85525 0 0 0 -0.447525 0.857816 0.198326 12.0107
C 11.4808 3.27146 13.6191 0 0 0 -0.0331566 -0.718082 0.78476 12.0107
C -7.14065 9.58981 15.8453 0 0 0 -0.194971 -0.841899 -0.183032 12.0107
C 7.38365 9.18694 13.0404 0 0 0 0.654964 -0.213643 0.224891 12.0107
C 9.27366 4.96579 12.2972 0 0 0 -0.733877 0.770538 0.459216 12.0107
C -5.35434 8.48144 11.1789 0 0 0 -0.468763 -1.08696 0.803522 12.0107
C 4.12539 1.67556 4.75788 0 0 0 -0.353258 0.52905 0.15745 12.0107
C 5.83148 -1.84584 17.1128 0 0 0 0.644275 -0.314558 1.50218 12.0107
C 3.82381 0.384904 8.28189 0 0 0 0.637025 -0.293102 -0.599751 12.0107
C 4.7409 1.58645 10.8201 0 0 0 0.6296 0.618212 -0.30936 12.0107
C 6.48531 1.12022 3.01737 0 0 0 0.132145 -0.0170647 -0.00973234 12.0107
C 2.56566 7.11454 1.03813 0 0 0 -0.266973 -0.608075 1.27882 12.0107
C 6.75714 4.08494 9.40366 0 0 0 -0.491828 -0.102305 -0.633146 12.0107
C 0.187427 6.80705 9.07199 0 0 0 -0.226215 0.484437 -1.16564 12.0107
C 2.54736 4.93006 6.63242 0 0 0 -2.04612 -1.90973 0.833847 12.0107
C 4.59757 5.99158 4.64778 0 0 0 1.00772 -0.33816 -2.25702 12.0107
C 6.87887 1.77751 13.3551 0 0 0 -1.17636 1.10786 1.21494 12.0107
C 3.70402 6.5254 10.3923 0 0 0 -0.272839 0.226203 -0.206659 12.0107
C -2.1674 10.1793 2.09167 0 0 0 -0.297947 0.00804091 -0.0934925 12.0107
C 1.56318 12.3082 1.14102 0 0 0 -0.144506 -0.644292 -0.627016 12.0107
C 1.09401 8.58267 6.04525 0 0 0 1.03643 -0.15554 1.64465 12.0107
C 0.397062 11.082 4.55962 0 0 0 0.267512 0.383738 -0.35279 12.0107
C 0.811441 11.9013 8.00198 0 0 0 -0.872769 0.507594 0.172441 12.0107
C 0.112116 9.5287 16.109 0 0 0 -0.113783 0.253896 0.146758 12.0107
C -4.39091 7.147 16.7947 0 0 0 1.45871 1.1192 0.674621 12.0107
C -0.543459 10.7742 12.8303 0 0 0 -0.857946 0.631504 1.84409 12.0107
C 9.94217 0.668647 16.1312 0 0 0 2.74632 -0.977738 -1.3041 12.0107
C 11.1422 3.35723 1.95594 0 0 0 -1.61396 0.672441 1.38825 12.0107
C 8.37996 5.51427 5.99582 0 0 0 -0.0813697 -0.166665 1.35299 12.0107
C 4.78232 10.021 2.33256 0 0 0 -0.0885171 -0.226372 -0.0403796 12.0107
C 5.41074 9.28823 9.18275 0 0 0 0.0811903 0.681449 0.343434 12.0107
C 10.2267 6.45994 8.15161 0 0 0 -0.103611 0.382615 -0.26234 12.0107
C 3.41887 8.41843 13.2064 0 0 0 -0.26473 1.20579 -0.428296 12.0107
C 5.24242 8.84863 16.4737 0 0 0 -0.418722 0.709918 0.479669 12.0107
C 13.0947 0.320845 0.585464 0 0 0 0.188075 -0.770907 -0.692032 12.0107
C 13.3432 -1.47881 15.1272 0 0 0 0.475738 -0.00760793 -0.0906484 12.0107
H 0.670255 -0.818349 15.9119 0 0 0 -0.145 0.628533 0.225823 1.00794
H -7.14804 12.3223 5.29068 0 0 0 0.580387 -0.607455 0.663951 1.00794
H -4.83105 12.1236 6.0064 0 0 0 -0.57659 -0.739388 -0.483393 1.00794
H 12.8842 1.40369 9.58643 0 0 0 0.203244 0.368989 0.605637 1.00794
H 0.175274 0.875111 17.3663 0 0 0 1.01394 0.42181 0.896312 1.00794
H 0.404815 6.08673 3.58034 0 0 0 0.166132 0.345881 0.769694 1.00794
H -4.4085 7.22311 5.22783 0 0 0 -0.087181 0.166454 0.00381297 1.00794
H -2.47982 6.79264 3.902 0 0 0 -0.437334 0.7068 0.322357 1.00794
H -1.21131 3.24094 12.2059 0 0 0 0.652325 0.295602 0.737863 1.00794
H -2.42614 7.32464 10.6928 0 0 0 0.28284 -0.633313 0.287981 1.00794
H 9.14317 8.2185 4.36032 0 0 0 0.132786 0.407712 1.31227 1.00794
H 7.17844 7.29323 3.24248 0 0 0 -0.434015 -0.000913245 1.05561 1.00794
H -4.21411 9.32951 7.16036 0 0 0 0.462804 -0.0523928 -0.46974 1.00794