271
Timestep=0 Time=0.000000 pbc="T T T" Lattice="14.7487 0 0 -6.1972 13.4318 0 -1.00475 -1.86056 16.6096" Potential_energy=991.897204471411 Temperature=0 Stress="77778.6008730521 -3091.316822078608 3652.135758867367 -3091.316822078608 71135.66866271522 4775.738514734239 3652.135758867367 4775.738514734239 76044.12565028784" Properties=species:S:1:pos:R:3:vel:R:3:forces:R:3:mass:R:1
Si -4.38185 12.9955 2.18572 0 0 0 64.0668 31.9685 30.0186 28.0855
Si 13.1891 1.27313 4.0183 0 0 0 -67.8299 56.804 -3.74956 28.0855
Si 0.77606 1.76235 0.3257 0 0 0 72.2601 36.097 -58.612 28.0855
Si -3.91595 12.5501 7.04696 0 0 0 -33.4538 -18.2917 8.86365 28.0855
Si 1.20056 1.56515 5.4359 0 0 0 2.83866 6.18504 17.3169 28.0855
Si 12.0919 1.40265 15.6879 0 0 0 32.1427 12.5556 -9.09663 28.0855
Si -0.10764 3.82902 7.21409 0 0 0 -61.5013 2.85063 -22.644 28.0855
Si -3.61332 5.99624 9.44598 0 0 0 -62.9162 45.5635 39.8426 28.0855
Si -0.76737 5.77813 10.8436 0 0 0 -41.5967 -60.0219 10.1585 28.0855
Si 9.37881 10.3713 3.62067 0 0 0 -15.126 58.7303 27.4953 28.0855
Si -1.71919 8.37077 6.91707 0 0 0 -15.3634 -17.2756 -7.09791 28.0855
Si -2.56098 10.6661 4.97839 0 0 0 -45.6054 -14.2745 15.128 28.0855
Si -2.26227 7.43064 13.0037 0 0 0 -25.2161 6.23454 -3.86039 28.0855
Si -5.30072 8.42733 15.4127 0 0 0 -7.94549 -7.59096 -9.34604 28.0855
Si -3.33603 9.92956 11.2998 0 0 0 -9.55381 -11.5548 -13.5181 28.0855
Si 1.42599 13.0894 1.73093 0 0 0 7.94191 6.83212 -2.4428 28.0855
Si 7.27093 2.28063 0.07582 0 0 0 -4.84513 25.0865 -19.9591 28.0855
Si 0.35857 12.3926 7.53399 0 0 0 96.1105 -48.3798 6.10046 28.0855
Si 2.77634 0.558 9.7025 0 0 0 -66.1528 18.7972 22.2871 28.0855
Si 5.98035 1.59865 5.89678 0 0 0 12.6948 -26.6861 -54.4332 28.0855
Si 6.30597 -1.45115 13.2833 0 0 0 58.6264 -32.5798 37.7074 28.0855
Si 5.16583 0.89458 11.677 0 0 0 49.5113 41.5354 -23.095 28.0855
Si 5.02667 4.06182 1.23966 0 0 0 -30.2647 -21.6116 5.60948 28.0855
Si 0.93929 6.47436 2.29994 0 0 0 16.0206 44.0147 48.2285 28.0855
Si 1.5688 6.02355 8.89943 0 0 0 -8.01835 18.1009 3.92669 28.0855
Si 3.08899 5.70314 4.30221 0 0 0 43.1524 -14.4183 6.26323 28.0855
Si 4.54992 3.84597 12.5147 0 0 0 -2.76437 44.3773 2.38709 28.0855
Si 4.35801 5.86076 10.2999 0 0 0 9.518 35.9931 55.9556 28.0855
Si 2.71703 7.87351 0.12098 0 0 0 47.5148 11.6324 -4.59324 28.0855
Si -0.30808 10.8425 2.89345 0 0 0 6.48792 -15.2096 15.6143 28.0855
Si 1.66776 9.08363 16.602 0 0 0 -51.3772 16.1894 -31.5997 28.0855
Si 2.47352 7.76871 6.51971 0 0 0 81.5123 -11.6354 -26.594 28.0855
Si -0.95587 10.3257 9.30271 0 0 0 26.2551 -14.0068 -16.344 28.0855
Si 1.55279 10.4968 5.36365 0 0 0 43.5865 28.9538 28.6086 28.0855
Si -1.00613 9.6029 14.9326 0 0 0 -22.8268 36.4369 46.6385 28.0855
Si 1.44294 10.1585 11.1975 0 0 0 -41.5734 -11.1241 26.7132 28.0855
Si 5.99937 12.5352 1.99802 0 0 0 -56.6984 9.77556 -30.8845 28.0855
Si 8.5934 1.60176 4.10414 0 0 0 -0.970801 47.7274 -37.6732 28.0855
Si 11.3958 -0.24276 8.62314 0 0 0 47.6201 2.4548 24.883 28.0855
Si 10.9554 1.46455 6.04417 0 0 0 -12.2638 25.2939 -10.3609 28.0855
Si 11.0796 -0.94374 13.8097 0 0 0 -3.30123 -63.2636 -58.9121 28.0855
Si 5.84947 6.34551 3.08782 0 0 0 10.3161 -69.8789 7.72546 28.0855
Si 9.80634 3.98186 7.38729 0 0 0 -60.354 -2.97659 5.57289 28.0855
Si 6.89876 6.53094 8.49805 0 0 0 36.4903 -3.3362 23.7813 28.0855
Si 8.62834 5.84364 10.9408 0 0 0 -37.6254 -14.4622 42.0646 28.0855
Si 7.84041 8.2633 1.85992 0 0 0 10.7289 8.67651 -7.56787 28.0855
Si 7.59645 10.7822 0.02103 0 0 0 -31.9236 -31.5298 -9.84145 28.0855
Si 4.36206 10.5434 9.89999 0 0 0 18.8936 -22.4011 -26.1036 28.0855
Si 7.78043 8.11919 12.8331 0 0 0 -63.8082 -41.6089 26.3739 28.0855
Si 4.27109 9.68576 14.8201 0 0 0 -21.5347 16.9123 -54.6692 28.0855
Si 6.8597 11.0646 11.9213 0 0 0 -26.2732 16.3462 -31.0278 28.0855
H 2.24573 0.11101 3.48989 0 0 0 6.54914 -13.9356 -23.8371 1.00794
H 12.666 2.39128 3.20209 0 0 0 1.06126 -2.53325 1.41174 1.00794
H 0.288031 -0.662369 15.6533 0 0 0 -2.79275 1.95277 6.92334 1.00794
H 1.62567 2.89957 0.77665 0 0 0 -2.93559 -6.22628 -2.31802 1.00794
H 2.45412 1.93828 4.77464 0 0 0 -7.80477 5.18213 2.13352 1.00794
H 11.0568 2.0733 16.5154 0 0 0 5.22842 1.70183 -4.25254 1.00794
H -0.5086 4.36364 11.1849 0 0 0 -0.510139 2.33529 -1.55097 1.00794
H -3.94397 7.36244 9.00951 0 0 0 -0.967845 -1.31931 2.3857 1.00794
H -0.60454 7.4326 6.69688 0 0 0 -3.12476 2.4977 1.84176 1.00794
H -3.02493 7.66091 6.94988 0 0 0 7.89386 1.79386 -4.91909 1.00794
H -3.25516 6.48913 13.5465 0 0 0 -0.663622 0.14489 -4.37844 1.00794
H -4.32234 9.5228 15.2396 0 0 0 -0.433603 -11.2143 -1.48974 1.00794
H -4.38555 9.61043 10.2997 0 0 0 1.67286 5.2438 6.62417 1.00794
H 5.56746 0.48794 15.3796 0 0 0 4.6254 5.46546 6.77916 1.00794
H 1.62078 12.4683 8.30092 0 0 0 -1.64555 -1.1414 -3.38281 1.00794
H 1.64701 -0.25732 10.2424 0 0 0 4.3616 12.2241 -6.67268 1.00794
H 7.27093 -1.10195 14.3455 0 0 0 -1.47116 -1.75902 -3.95451 1.00794
H 4.1778 3.49453 2.32326 0 0 0 -0.255069 5.15748 -9.68142 1.00794
H 0.70618 7.64457 3.18244 0 0 0 -2.10927 -5.09606 -3.06274 1.00794
H 3.48229 4.35967 4.75949 0 0 0 0.47561 2.73702 0.198662 1.00794
H 3.17002 4.2832 12.8688 0 0 0 8.16657 -1.1633 0.187118 1.00794
H 4.04951 7.40635 0.57099 0 0 0 -4.95072 -0.0655239 -5.97914 1.00794
H -1.92767 10.0357 15.9893 0 0 0 5.2683 1.30647 -1.96175 1.00794
H 11.3603 0.1083 1.29158 0 0 0 -1.30551 -6.88979 2.60683 1.00794
H 8.88154 2.84086 3.35457 0 0 0 0.809103 -2.30777 2.45867 1.00794
H 10.0725 -0.7162 12.7548 0 0 0 1.82478 -2.04951 0.4613 1.00794
H 9.03737 4.88153 6.49134 0 0 0 -1.43319 -5.99763 5.60704 1.00794
H 6.88472 5.83181 7.19181 0 0 0 -1.43756 6.01994 10.3989 1.00794
H 8.12035 4.80291 11.8542 0 0 0 -2.5075 3.32377 -3.79489 1.00794
H 4.56201 9.29874 9.14721 0 0 0 -0.431151 3.13241 21.2514 1.00794
H 6.55636 7.49334 13.3514 0 0 0 18.0355 3.68833 14.3102 1.00794
H 3.99589 9.21622 13.4544 0 0 0 3.98067 5.29351 3.52222 1.00794
H 7.90286 11.817 11.2004 0 0 0 -1.33846 -1.41585 2.13588 1.00794
H -4.23209 11.1776 16.5995 0 0 0 -4.04391 6.38525 -1.52169 1.00794
H -2.45672 11.8739 1.08431 0 0 0 -8.53333 -3.37018 4.82481 1.00794
H 4.02511 0.16303 1.31544 0 0 0 1.81 7.45949 1.36323 1.00794
H -4.04222 10.4165 8.19451 0 0 0 3.7327 -2.87589 -1.54025 1.00794
H -5.49357 10.6387 7.20183 0 0 0 2.01534 -0.606362 0.00880057 1.00794
H -5.34526 11.4667 8.76494 0 0 0 2.74106 4.94616 4.19254 1.00794
H -2.2299 3.22018 14.0703 0 0 0 -6.04056 1.9406 -2.39317 1.00794
H -0.85933 2.0895 14.1239 0 0 0 2.92298 -6.30303 -1.39756 1.00794
H -1.07167 3.29716 15.4188 0 0 0 1.70287 1.70205 7.50707 1.00794
H -0.55456 2.47564 9.2467 0 0 0 1.86164 -1.3153 4.30871 1.00794
H -1.6804 2.1177 7.92046 0 0 0 0.456741 3.53331 -0.327542 1.00794
H -1.91477 3.57721 8.89864 0 0 0 0.64145 2.11175 0.131546 1.00794
H -1.85133 5.33913 6.31531 0 0 0 -3.36277 2.09516 6.51251 1.00794
H -1.52646 4.00946 5.19836 0 0 0 -0.433665 -4.1187 -2.13776 1.00794
H -0.37335 5.37023 5.31662 0 0 0 5.89772 2.73625 -3.16509 1.00794
H 7.96347 9.94216 5.5647 0 0 0 -2.35485 -6.1168 0.318901 1.00794
H 7.10284 10.96 4.39149 0 0 0 25.5135 7.44199 16.5995 1.00794
H 8.33156 11.6893 5.42231 0 0 0 1.86723 4.37671 -2.44106 1.00794
H -3.48822 6.88351 16.0194 0 0 0 4.28074 -0.533074 -4.50786 1.00794
H 9.72802 6.0265 15.8432 0 0 0 13.3081 7.04385 -17.2124 1.00794
H -3.68029 8.8126 0.72745 0 0 0 -3.43479 5.83989 7.35452 1.00794
H -4.31525 12.0452 12.0458 0 0 0 -1.25926 0.6984 2.28292 1.00794
H -3.13602 11.4623 13.2387 0 0 0 2.83939 0.314791 2.64403 1.00794
H -4.7586 10.7195 13.1445 0 0 0 -3.88179 -3.82773 2.58684 1.00794
H 8.00191 2.11515 16.2447 0 0 0 -3.27318 5.32899 -2.65602 1.00794
H 8.6221 0.47859 15.9235 0 0 0 0.3129 -6.29371 -4.91439 1.00794
H 9.48562 2.92698 0.98619 0 0 0 -0.810913 -2.31717 6.7001 1.00794
H 1.62688 2.61243 9.01044 0 0 0 4.51149 -7.92632 2.30425 1.00794
H 3.27779 2.9581 9.519 0 0 0 8.70363 -3.68105 -3.03455 1.00794
H 2.03141 2.65848 10.7466 0 0 0 -2.91139 -1.80467 6.25154 1.00794
H 5.51701 0.3052 3.86046 0 0 0 3.54895 0.724817 3.19114 1.00794
H 4.70593 1.88559 3.81739 0 0 0 1.68689 3.60982 -0.06925 1.00794
H 4.03432 0.54736 4.77641 0 0 0 4.54187 -4.64532 8.59864 1.00794
H 5.3339 4.00182 6.15582 0 0 0 2.30584 2.43066 -6.03294 1.00794
H 5.90696 3.30261 7.68656 0 0 0 3.57967 -1.01426 3.52691 1.00794
H 4.28494 2.91078 7.08066 0 0 0 -5.77126 -2.44213 1.11365 1.00794
H 6.60726 2.01715 10.0407 0 0 0 -7.15847 2.78199 -2.99678 1.00794
H 7.24437 0.40681 10.4419 0 0 0 0.306908 -7.551 -1.70568 1.00794
H 7.47451 1.76153 11.5724 0 0 0 1.17824 2.22868 6.84327 1.00794
H 2.16638 2.80176 16.3537 0 0 0 -4.66091 3.75745 2.44269 1.00794
H 2.89041 1.25344 15.8619 0 0 0 0.128805 -7.69781 1.47443 1.00794
H 3.7037 2.77524 15.4519 0 0 0 3.88187 2.34729 0.323919 1.00794
H -1.11654 5.28081 2.94729 0 0 0 -0.744883 0.637275 5.92519 1.00794
H -0.37503 4.53184 1.5219 0 0 0 6.0607 -1.75128 -1.20896 1.00794
H -1.30444 6.04617 1.35165 0 0 0 -1.57793 6.04714 -4.2276 1.00794
H 6.78773 4.00802 13.5761 0 0 0 3.12839 -4.46611 -3.52958 1.00794
H 5.49713 3.92158 14.7969 0 0 0 -1.01473 -2.52212 3.25659 1.00794
H 5.80417 5.44556 13.9424 0 0 0 -3.92723 4.15559 -2.10541 1.00794
H 3.69843 8.08432 11.1504 0 0 0 1.67457 -5.72079 -7.19554 1.00794
H 5.11079 7.44086 12.0041 0 0 0 -12.5531 -1.65875 -15.6714 1.00794
H 3.49229 6.8308 12.3859 0 0 0 -0.777411 -6.61398 2.64685 1.00794
H 0.51556 6.25528 14.5679 0 0 0 -6.91506 3.19371 3.15773 1.00794
H 1.54487 4.8025 14.5912 0 0 0 -0.509001 -6.87673 2.01643 1.00794
H 2.27453 6.40249 14.3575 0 0 0 5.24932 4.52853 1.74352 1.00794
H -1.27639 8.71013 2.14954 0 0 0 -3.50173 -3.4932 5.99019 1.00794
H 0.11767 9.15486 1.13168 0 0 0 3.58691 4.01161 -1.53604 1.00794
H -1.44177 9.97997 0.92261 0 0 0 2.35045 1.33155 -0.887774 1.00794
H 3.31762 12.1675 4.9469 0 0 0 -6.45112 -1.57629 -2.66428 1.00794
H 4.0054 10.5314 5.01343 0 0 0 -0.878418 -7.00246 1.58537 1.00794
H 3.51034 11.3574 6.50667 0 0 0 0.428314 -0.926553 3.23672 1.00794
H 1.5355 7.77987 11.7977 0 0 0 1.80849 0.114627 -1.97578 1.00794
H 0.26198 8.63012 12.6419 0 0 0 6.18503 3.81191 -6.83413 1.00794
H 1.93104 8.80413 13.2068 0 0 0 -2.46785 2.28417 2.06355 1.00794
H 4.87963 10.3611 1.72191 0 0 0 3.53937 -2.39747 -3.40792 1.00794
H 4.10478 11.3102 2.99823 0 0 0 -2.91665 7.08661 -5.71891 1.00794
H 5.63138 10.4491 3.30424 0 0 0 -21.2174 -9.10908 -16.7707 1.00794
H 11.6129 1.84869 9.96774 0 0 0 -0.308338 3.98281 -4.11744 1.00794
H 11.9553 0.41342 10.9425 0 0 0 3.49607 -3.97478 1.20268 1.00794
H 10.2722 0.82913 10.558 0 0 0 -6.68097 -2.33013 -0.181837 1.00794
H 6.85868 11.947 7.31595 0 0 0 -3.61291 -3.63298 -3.73721 1.00794
H 7.36347 12.1052 9.01247 0 0 0 -5.64962 -0.0328671 3.43302 1.00794
H 13.7756 0.02987 7.88674 0 0 0 0.899057 6.7626 -0.229229 1.00794
H 7.99613 5.25423 3.63278 0 0 0 3.15513 0.938867 -4.07225 1.00794
H 6.65046 4.36372 4.34991 0 0 0 -6.60067 -3.3346 -4.63693 1.00794
H 7.20365 5.87614 5.09387 0 0 0 -0.63898 6.64201 -3.65966 1.00794
H 9.33005 2.5924 9.36808 0 0 0 3.936 2.36819 2.32091 1.00794
H 8.4441 1.99385 7.95216 0 0 0 -2.33118 -3.93133 -5.92931 1.00794
H 7.87725 3.4419 8.82189 0 0 0 -3.39297 0.740096 -1.70758 1.00794
H 6.80835 8.83782 7.59116 0 0 0 -4.18173 1.18121 -3.83887 1.00794
H 8.47281 8.31732 7.95251 0 0 0 5.18374 -1.05904 -2.52739 1.00794
H 7.40612 8.83362 9.27362 0 0 0 -2.78939 0.578112 8.05607 1.00794
H 7.81467 6.20406 0.52416 0 0 0 -4.8164 -1.84724 -4.83296 1.00794
H 9.04651 6.10495 1.80382 0 0 0 2.34674 -0.788458 5.28857 1.00794
H 9.37101 7.04591 0.34211 0 0 0 -17.4007 -8.2815 10.8201 1.00794
H 4.6091 8.43737 5.52642 0 0 0 2.56273 2.36313 -4.63778 1.00794
H 4.83329 7.37378 6.92553 0 0 0 -6.75235 -0.988945 -6.57211 1.00794
H 4.46765 9.0975 7.18025 0 0 0 -5.12193 4.7597 -16.2651 1.00794
C -2.93542 12.8565 1.03162 0 0 0 11.3046 -3.85056 3.99069 12.0107
C -4.79566 11.1489 7.8727 0 0 0 -0.529862 -8.77179 7.41732 12.0107
C -1.60446 2.61311 14.7421 0 0 0 4.95514 5.40419 -2.12827 12.0107
C -1.16092 2.92489 8.44894 0 0 0 -5.96936 -0.357518 -7.17473 12.0107
C -1.05236 4.72165 5.8858 0 0 0 -6.20476 -0.450874 -0.956248 12.0107
C 8.07294 10.782 4.86327 0 0 0 -6.59664 6.01271 1.13251 12.0107
C -4.5613 6.93902 16.2465 0 0 0 3.41641 -0.487763 0.899048 12.0107
C -3.9367 11.1504 12.5582 0 0 0 -5.65569 2.78364 2.53318 12.0107
C 8.00171 1.07607 16.6061 0 0 0 8.31868 4.02196 -0.532005 12.0107
C 2.38969 2.35802 9.75126 0 0 0 -1.78598 12.4428 0.0941229 12.0107
C 4.96156 1.03229 4.46309 0 0 0 -9.55971 -1.7259 -5.40182 12.0107
C 5.32563 3.09947 6.77755 0 0 0 -10.4137 4.60419 -1.39856 12.0107
C 6.77171 1.30558 10.8592 0 0 0 9.59093 3.73563 -3.91795 12.0107
C 3.1175 2.26513 16.2275 0 0 0 -4.35347 -2.42608 -6.9161 12.0107
C -0.60585 5.49487 1.99762 0 0 0 -7.95764 -4.74238 2.85645 12.0107
C 5.7735 4.35295 13.8244 0 0 0 4.32712 2.00399 4.9847 12.0107
C 4.14015 7.17579 11.5693 0 0 0 1.27718 7.66532 8.70736 12.0107
C 1.48589 5.85737 14.8956 0 0 0 3.61377 0.720031 -10.9132 12.0107
C -0.75752 9.5456 1.66122 0 0 0 -3.06938 -5.46878 -5.37064 12.0107
C 3.25459 11.1964 5.44953 0 0 0 7.88551 9.59189 7.57574 12.0107
C 1.30176 8.71186 12.3165 0 0 0 -7.98854 -8.80488 7.29237 12.0107
C 5.06962 11.035 2.56691 0 0 0 -3.26784 -8.70148 -1.31459 12.0107
C 11.2963 0.81558 10.1585 0 0 0 8.9336 0.281395 5.7091 12.0107
C 13.1071 -0.79187 8.16782 0 0 0 7.57303 -3.1888 -0.038506 12.0107
C 7.02581 5.37223 4.13389 0 0 0 9.09516 -9.03102 6.71634 12.0107
C 8.76436 2.90125 8.47907 0 0 0 0.359463 -2.03025 6.7218 12.0107
C 7.4338 8.29969 8.3149 0 0 0 3.92875 5.36411 -0.558267 12.0107
C 8.59014 6.76987 1.05723 0 0 0 3.94224 -7.43486 -4.52803 12.0107
C 4.26282 8.2302 6.5461 0 0 0 5.21609 -4.36063 2.87896 12.0107
O 0.74522 0.61608 1.49056 0 0 0 -69.7109 -22.9752 37.1077 15.9994
O 0.02417 1.502 4.30186 0 0 0 44.92 23.5145 -87.3028 15.9994
O 1.28578 0.09433 6.16796 0 0 0 -76.2742 -45.5078 -4.67056 15.9994
O -0.74962 2.32513 0.08815 0 0 0 -48.3724 -27.4831 58.5364 15.9994
O 0.90056 2.713 6.54321 0 0 0 60.4134 22.4244 41.467 15.9994
O -2.03285 5.88798 9.81639 0 0 0 40.956 10.2233 -73.1747 15.9994
O -5.10872 11.5512 2.51187 0 0 0 -42.2642 -14.9375 -76.7653 15.9994
O -3.96162 10.0588 4.40468 0 0 0 -8.00026 -79.7115 12.179 15.9994
O -1.75702 9.44121 5.68125 0 0 0 78.1986 -12.9612 -34.557 15.9994
O -2.81963 11.9041 6.00476 0 0 0 66.7039 52.3836 18.0423 15.9994
O -1.09305 6.57917 12.2299 0 0 0 66.5293 2.45126 48.6828 15.9994
O -2.95062 8.47464 11.9747 0 0 0 -54.9801 -27.3273 -44.5972 15.9994
O 7.2458 0.70113 0.54762 0 0 0 -34.172 -26.6522 -73.0528 15.9994
O 3.03609 0.06332 8.1504 0 0 0 77.2764 25.6547 -16.907 15.9994
O 6.13044 0.45798 7.07955 0 0 0 -43.7289 44.8807 57.7038 15.9994
O 4.10369 0.25643 10.6175 0 0 0 21.7974 -85.2378 -22.9797 15.9994
O 5.37288 -0.18012 12.902 0 0 0 -48.1985 25.4752 51.232 15.9994
O 6.38545 3.13602 1.16639 0 0 0 32.4295 -6.25106 66.4586 15.9994
O 0.88425 4.87601 8.00429 0 0 0 24.3089 -42.3815 -16.95 15.9994
O 0.54529 6.43254 10.1183 0 0 0 20.4673 68.591 24.0452 15.9994
O 2.0768 5.51974 3.03191 0 0 0 -7.18111 -64.2268 -39.1126 15.9994
O 4.5039 2.21934 12.3815 0 0 0 -62.4082 -28.068 42.4184 15.9994
O 2.95178 5.47174 9.56225 0 0 0 -3.31593 -89.1139 -4.02673 15.9994
O 4.94909 4.51259 11.046 0 0 0 43.886 -31.3063 -23.7553 15.9994
O 1.53784 6.98567 0.8494 0 0 0 -48.8408 -34.9305 -57.2655 15.9994
O 0.10051 12.2316 2.10938 0 0 0 -70.8952 20.2844 -30.9832 15.9994
O -1.64658 11.2246 3.75855 0 0 0 -23.5719 67.3618 -25.959 15.9994
O 2.56764 9.45026 0.62018 0 0 0 -20.7157 -17.7671 77.9666 15.9994
O 2.57243 12.065 1.17036 0 0 0 65.3835 14.2325 42.4544 15.9994
O 1.91324 7.33687 8.00248 0 0 0 -17.0554 76.32 36.3267 15.9994
O 2.30192 6.48661 5.50067 0 0 0 -78.3928 -33.7938 21.925 15.9994
O -1.52891 9.13542 8.35284 0 0 0 -53.6531 -41.5559 39.4058 15.9994
O -0.80343 11.7204 8.47596 0 0 0 -64.1871 57.2559 6.08849 15.9994
O -2.01017 10.5314 10.5257 0 0 0 13.1007 79.5218 53.4409 15.9994
O 0.94885 10.3976 3.84103 0 0 0 64.5481 -54.6407 -45.2975 15.9994
O 1.52093 8.99268 6.0128 0 0 0 -73.3364 -11.7716 11.4964 15.9994
O 0.53565 11.4607 6.20643 0 0 0 -68.1461 8.03864 -46.3227 15.9994
O -1.57645 8.22221 14.2639 0 0 0 1.40727 -57.6701 62.1417 15.9994
O 0.47616 9.3002 15.5239 0 0 0 38.6105 1.38543 -64.536 15.9994
O -0.87459 10.7718 13.7984 0 0 0 -64.8561 -4.65239 -56.09 15.9994
O 0.51904 9.91498 9.86833 0 0 0 41.728 -54.6956 -50.022 15.9994
O 0.94763 11.5272 11.9592 0 0 0 21.3178 54.207 -44.0329 15.9994
O 12.9166 -0.14754 3.2771 0 0 0 36.6329 -75.1756 40.0651 15.9994
O 8.16621 0.42237 3.05688 0 0 0 13.6056 -45.1706 40.6895 15.9994
O 7.49252 1.91553 5.2595 0 0 0 -0.175573 60.1379 65.116 15.9994
O 12.4763 1.25418 5.50283 0 0 0 50.3155 -17.8912 47.2045 15.9994
O 9.95253 1.04732 4.82702 0 0 0 19.8176 -54.7329 -31.5294 15.9994
O 10.6905 0.52278 7.34028 0 0 0 -78.3425 -29.1221 15.3563 15.9994
O 11.2872 0.44452 14.6149 0 0 0 -58.2785 64.5265 -14.1077 15.9994
O 5.51386 5.57614 1.67119 0 0 0 5.12418 39.5003 -57.9626 15.9994
O 4.41997 6.57563 3.87353 0 0 0 -4.08718 70.6977 23.5345 15.9994
O 10.7492 3.03562 6.41598 0 0 0 44.7952 56.0452 -30.1108 15.9994
O 10.8441 4.922 8.26132 0 0 0 56.7106 -30.2691 -34.3292 15.9994
O 5.40867 6.36114 9.15584 0 0 0 -48.0758 41.8268 -59.5923 15.9994
O 10.2486 5.63703 10.7945 0 0 0 29.6614 -15.2467 36.9486 15.9994
O 7.98451 5.71474 9.44346 0 0 0 15.9735 -53.5249 -42.5256 15.9994
O 6.51595 7.81017 2.73722 0 0 0 -27.5181 51.7953 31.3496 15.9994
O 8.94871 8.99899 2.82039 0 0 0 61.9264 -57.2174 18.1843 15.9994
O 8.15112 9.0625 16.1931 0 0 0 38.9539 69.9281 38.546 15.9994
O 7.32848 9.33775 0.72617 0 0 0 -64.9936 -42.3506 -28.5549 15.9994
O 7.17567 12.0317 0.95625 0 0 0 56.3024 70.1084 22.2262 15.9994
O 4.29829 11.8164 8.88569 0 0 0 -49.3253 14.758 -48.5751 15.9994
O 2.98763 10.4363 10.7492 0 0 0 14.9679 16.4437 60.4376 15.9994
O 8.24058 7.34207 11.4719 0 0 0 6.81153 56.6867 -61.2044 15.9994
O 8.98913 7.95439 13.903 0 0 0 66.1362 -44.4717 -15.718 15.9994
O 5.67206 8.98407 15.2732 0 0 0 41.2223 -33.258 -53.4618 15.9994
O 4.35491 11.3215 14.835 0 0 0 -22.2212 33.2126 67.3453 15.9994
O 3.09431 9.22952 15.8427 0 0 0 35.3524 -53.7668 30.7632 15.9994
O 5.62716 10.6988 10.9252 0 0 0 15.4552 -32.0451 -21.5355 15.9994
O 7.52088 9.69104 12.4927 0 0 0 55.6038 28.683 40.1064 15.9994
O 12.5074 -1.43358 13.1471 0 0 0 59.8908 43.8163 43.5576 15.9994
271
Timestep=76 Time=76.000000 pbc="T T T" Lattice="14.7487 0 0 -6.1972 13.4318 0 -1.00475 -1.86056 16.6096" Potential_energy=-51.603304450006135 Temperature=0 Stress="3094.8479122939248 -1542.5851982398724 -3728.096959839884 -1542.5851982398724 2177.843201853451 -1162.9300382714675 -3728.096959839884 -1162.9300382714675 -641.6318767952258" Properties=species:S:1:pos:R:3:vel:R:3:forces:R:3:mass:R:1
Si -4.1343 12.8391 2.05928 0 0 0 -1.02047 -0.615062 0.394563 28.0855
Si 13.0182 1.01631 4.2142 0 0 0 1.16415 -1.36507 0.217005 28.0855
Si 0.549238 1.44109 0.425642 0 0 0 1.78512 0.38511 0.863883 28.0855
Si -4.42721 12.5369 6.9715 0 0 0 -0.0737663 0.318557 -0.498163 28.0855
Si 0.962997 1.58589 5.51047 0 0 0 0.241935 1.45466 -0.135195 28.0855
Si 12.2675 1.34114 15.71 0 0 0 -0.339363 -0.327096 0.429843 28.0855
Si -0.0592434 4.09259 6.89168 0 0 0 0.868335 3.96276 1.57872 28.0855
Si -3.54103 5.97724 9.59361 0 0 0 -0.686085 -0.375198 -0.589035 28.0855
Si -0.66995 6.17297 10.7503 0 0 0 -0.28213 0.134191 0.474695 28.0855
Si -4.8472 9.98321 3.193 0 0 0 0.340379 -0.543102 0.755641 28.0855
Si -1.89754 8.78368 7.05164 0 0 0 -1.457 1.30233 1.09962 28.0855
Si -2.75195 10.8773 5.07372 0 0 0 0.4878 -0.573472 0.241357 28.0855
Si -1.95725 7.40122 13.2119 0 0 0 -0.538173 -1.47394 0.203626 28.0855
Si 9.10758 8.03263 15.1206 0 0 0 0.000126171 -0.127626 0.909691 28.0855
Si -2.88687 9.44634 11.1544 0 0 0 -0.428234 2.11194 -1.63679 28.0855
Si 1.19697 12.9685 2.02727 0 0 0 0.387035 0.580991 -1.74765 28.0855
Si 7.23495 2.1347 0.457341 0 0 0 0.156048 -0.0865673 -0.0653771 28.0855
Si 0.181945 12.3984 7.7346 0 0 0 -0.266255 -0.74807 -0.16082 28.0855
Si 2.86694 0.253469 9.48101 0 0 0 -0.0684114 0.312774 -0.0221483 28.0855
Si 6.01054 1.56274 6.32608 0 0 0 0.521978 0.257887 -0.424396 28.0855
Si 6.22068 -1.35348 13.157 0 0 0 -0.276212 -1.19885 -0.43397 28.0855
Si 4.90163 0.881763 11.6525 0 0 0 -0.939895 -1.87278 0.784518 28.0855
Si 5.21758 4.21308 1.29749 0 0 0 0.100372 0.278893 0.772295 28.0855
Si 1.2516 6.60578 2.13288 0 0 0 -0.603148 1.11897 1.1922 28.0855
Si 1.603 6.05453 8.65981 0 0 0 3.62841 -0.156736 3.687 28.0855
Si 3.15615 6.08092 4.31263 0 0 0 -1.35901 0.996861 0.588801 28.0855
Si 4.33264 3.76094 12.249 0 0 0 0.328591 0.235831 -0.821238 28.0855
Si 4.23287 5.47962 9.84992 0 0 0 2.15574 0.236986 1.13025 28.0855
Si 2.76324 8.31869 0.194521 0 0 0 0.180094 0.792452 -0.76025 28.0855
Si -0.419482 10.6537 3.15499 0 0 0 -0.246874 -2.02464 -0.177379 28.0855
Si 1.69537 9.42863 16.6052 0 0 0 0.125833 -0.495498 -1.84799 28.0855
Si 2.55669 8.00934 6.55628 0 0 0 0.112405 0.375059 1.70553 28.0855
Si -0.393025 9.96741 9.3944 0 0 0 -0.527138 -0.229667 -0.629404 28.0855
Si 1.33686 10.5845 5.63349 0 0 0 0.0661028 1.05431 -0.132454 28.0855
Si -0.812381 9.81147 14.8729 0 0 0 -0.527376 0.301709 -0.585312 28.0855
Si 1.77625 10.5134 11.269 0 0 0 0.693548 0.517202 0.240789 28.0855
Si 6.08695 12.1866 2.31432 0 0 0 1.0147 0.57999 -0.298943 28.0855
Si 8.28357 1.33066 4.34729 0 0 0 0.228383 0.320316 -0.645031 28.0855
Si 11.0548 -0.125165 8.49518 0 0 0 0.211877 -0.446678 -0.188375 28.0855
Si 10.7636 1.64078 5.9917 0 0 0 0.677869 -1.36368 -0.317999 28.0855
Si 10.9089 -0.683378 14.046 0 0 0 -0.891864 -0.616679 0.490163 28.0855
Si 5.80802 6.56269 3.05121 0 0 0 -1.23954 -0.123659 -0.495689 28.0855
Si 10.0292 4.0325 7.76237 0 0 0 -0.332929 0.445818 -0.984503 28.0855
Si 6.89557 6.36937 8.76881 0 0 0 0.739966 0.960913 0.0293063 28.0855
Si 8.68012 6.18189 11.2535 0 0 0 -1.68509 -0.312704 1.02837 28.0855
Si 8.0135 8.0813 1.63633 0 0 0 -0.870547 -2.44854 -0.668493 28.0855
Si 7.78127 10.7509 0.162107 0 0 0 0.171804 0.407626 -1.16347 28.0855
Si 4.5198 10.8214 10.1822 0 0 0 0.793002 0.236286 0.336044 28.0855
Si 7.33532 8.23981 12.7958 0 0 0 0.348194 0.131037 0.357556 28.0855
Si 4.38378 9.98674 15.1812 0 0 0 -0.922914 -0.0661044 -0.144558 28.0855
Si 6.82365 11.272 12.2581 0 0 0 -0.885919 -0.0566646 0.228982 28.0855
H 2.57679 -0.110342 3.32088 0 0 0 0.287157 -0.0215479 0.63979 1.00794
H 12.377 1.89006 3.21988 0 0 0 -0.212825 0.201653 -0.580934 1.00794
H 0.0433419 -0.963333 15.76 0 0 0 0.342268 0.156879 0.892079 1.00794
H 1.37659 2.58294 0.839164 0 0 0 -0.0660774 0.332076 0.0619446 1.00794
H 2.25737 1.37778 4.93476 0 0 0 -0.156298 1.02039 0.392743 1.00794
H -2.91276 2.51674 16.4689 0 0 0 -0.411326 -0.246652 0.495892 1.00794
H -0.642376 4.72764 10.9827 0 0 0 -0.145992 -0.309806 0.761197 1.00794
H 10.4311 6.92411 8.7873 0 0 0 -0.401692 -0.51874 -0.142411 1.00794
H -1.50051 7.90014 5.94933 0 0 0 0.547371 -0.319731 -1.03956 1.00794
H -3.20902 8.38997 7.55247 0 0 0 1.23138 -0.918687 -0.381347 1.00794
H -2.57415 6.14141 13.6583 0 0 0 0.700142 1.07702 -0.51498 1.00794
H -4.7603 8.87432 14.3085 0 0 0 0.426084 0.856799 0.365014 1.00794
H -3.56935 9.11043 9.90004 0 0 0 0.10143 0.540876 0.125267 1.00794
H 5.69125 0.19342 15.7094 0 0 0 0.406503 0.713324 0.615879 1.00794
H 7.73667 -0.9014 8.27192 0 0 0 0.673826 -0.649095 0.194632 1.00794
H 1.54157 -0.046325 10.0449 0 0 0 0.884142 -0.344738 0.141054 1.00794
H 7.24781 -1.23085 14.2021 0 0 0 -0.232867 0.674016 0.243838 1.00794
H 4.59116 3.54944 2.45027 0 0 0 0.132975 0.143511 -0.201426 1.00794
H 1.07947 7.82263 2.92003 0 0 0 -0.254509 0.0617704 -0.176128 1.00794
H 3.68334 4.91771 5.02663 0 0 0 0.00525667 0.198487 0.0194839 1.00794
H 3.12909 4.53516 12.5806 0 0 0 0.272464 0.318713 -0.231254 1.00794
H 4.05326 8.12623 0.857609 0 0 0 0.121061 -0.451318 -0.0534774 1.00794
H -1.45019 10.4913 15.9919 0 0 0 0.0211844 0.0357332 0.281303 1.00794
H 5.3639 13.1805 1.51008 0 0 0 -0.460919 -0.198372 -0.285051 1.00794
H 7.86779 2.4834 3.54232 0 0 0 0.340356 0.404057 -0.367682 1.00794
H 9.79921 -0.68895 13.0909 0 0 0 0.0112064 0.202276 0.473405 1.00794
H 9.47451 5.28958 7.27114 0 0 0 0.231774 -1.98656 -0.732762 1.00794
H 7.49092 5.93472 7.52151 0 0 0 -0.122545 0.503889 -0.759328 1.00794
H 8.33584 5.45438 12.4878 0 0 0 0.605235 0.0204115 -0.589414 1.00794
H 4.4341 9.48499 9.61072 0 0 0 0.00395739 -0.621523 -0.169759 1.00794
H 5.99739 7.72648 12.6308 0 0 0 0.0788706 -0.288844 -0.460007 1.00794
H 4.07724 9.64933 13.7983 0 0 0 -0.0605595 0.116385 -0.192736 1.00794
H -6.60128 11.7901 11.9051 0 0 0 -0.347924 0.500685 -0.408108 1.00794
H -4.09247 11.0568 16.4203 0 0 0 -0.786739 0.343545 0.476186 1.00794
H -1.89443 12.6723 1.13286 0 0 0 0.318623 -0.656445 0.180674 1.00794
H 3.6296 0.881322 0.858977 0 0 0 0.470132 0.365057 0.111466 1.00794
H -4.70376 10.1924 7.69459 0 0 0 -0.0456207 0.281541 0.413095 1.00794
H 8.47344 10.8991 7.19278 0 0 0 -0.0635151 0.613204 0.570255 1.00794
H -5.56007 11.3192 8.80458 0 0 0 -0.456457 -0.0507922 -0.665916 1.00794
H -1.39709 2.66131 13.9189 0 0 0 0.164624 -0.383552 0.216218 1.00794
H -0.660107 1.01259 14.0422 0 0 0 -0.247685 0.351365 0.57674 1.00794
H -0.236894 2.28972 15.2542 0 0 0 0.207995 0.351862 0.149967 1.00794
H 0.0284121 2.41637 8.71916 0 0 0 -0.370132 0.467773 -0.212398 1.00794
H -1.60491 2.5096 7.94125 0 0 0 0.829048 -0.204948 0.482808 1.00794
H -1.09347 3.76908 9.09014 0 0 0 -0.25516 -0.975952 -0.100191 1.00794
H -2.23338 5.07832 6.30843 0 0 0 -0.381948 0.439331 -0.328982 1.00794
H -1.76802 3.81232 5.09537 0 0 0 0.180032 0.286573 0.1454 1.00794
H -0.987829 5.42735 5.07724 0 0 0 0.729503 0.462109 -0.977224 1.00794
H 8.53359 9.86827 5.20051 0 0 0 -0.000254422 -0.0815918 0.0376863 1.00794
H 7.53311 10.211 3.7872 0 0 0 0.943094 0.431905 0.219815 1.00794
H 8.5249 11.5516 4.51203 0 0 0 -0.0847081 -0.67355 0.219767 1.00794
H -3.55763 7.02074 15.9747 0 0 0 -0.25992 0.474766 -0.466343 1.00794
H 10.1776 5.80797 15.0885 0 0 0 0.0561657 0.0900209 0.405502 1.00794
H 10.7711 8.16853 0.167134 0 0 0 -0.0418669 0.750475 0.331808 1.00794
H -4.39885 11.3772 11.0963 0 0 0 0.808065 -0.576661 -0.279427 1.00794
H -3.05265 11.6677 12.279 0 0 0 0.177327 -0.00274224 -0.101654 1.00794
H -4.42465 10.594 12.7041 0 0 0 0.323105 -0.0128799 -0.552112 1.00794
H 8.46361 1.16018 16.5042 0 0 0 -0.057905 -0.163714 -0.255204 1.00794
H 8.44986 -0.638724 16.4253 0 0 0 -0.811681 0.165517 -0.72613 1.00794
H 9.51861 2.06215 1.42223 0 0 0 0.247605 -0.532592 -0.334761 1.00794
H 2.39979 2.24466 8.14818 0 0 0 -0.0388114 1.04189 -0.255 1.00794
H 3.90718 2.41447 9.1029 0 0 0 0.019614 0.630457 1.08346 1.00794
H 2.28918 2.56363 9.92524 0 0 0 -0.0904144 0.649877 0.860778 1.00794
H 5.43806 0.626883 4.07455 0 0 0 -0.223741 -0.0798389 0.514687 1.00794
H 4.45918 2.07571 4.47635 0 0 0 -0.0706612 0.226887 0.297011 1.00794
H 4.14448 0.475083 5.2803 0 0 0 0.330783 -1.30082 -0.0035887 1.00794
H 6.26941 4.00222 6.48377 0 0 0 -0.392884 -0.00332517 0.0726277 1.00794
H 5.64649 3.31134 8.00777 0 0 0 -0.249665 -0.380664 -1.0273 1.00794
H 4.51984 3.51176 6.62705 0 0 0 1.30163 -0.808957 0.544111 1.00794
H 6.19841 2.12247 9.94325 0 0 0 -0.575331 -0.105288 -0.556986 1.00794
H 7.0831 0.655959 10.4686 0 0 0 -0.192988 -0.480723 -0.193799 1.00794
H 7.06197 2.10921 11.5267 0 0 0 0.343864 0.0810721 0.21494 1.00794
H 3.10611 4.25555 0.0268467 0 0 0 0.388711 0.0261957 -0.473705 1.00794
H 3.07709 0.933165 16.2182 0 0 0 0.492811 0.294429 -0.490675 1.00794
H 3.51236 2.5391 15.5248 0 0 0 0.339068 0.255342 0.446822 1.00794
H -1.0161 5.99684 2.87998 0 0 0 -0.0650876 -0.44127 0.152069 1.00794
H -0.234428 4.65291 1.94476 0 0 0 -0.738728 -0.834475 -0.701314 1.00794
H -0.90681 6.10937 1.08824 0 0 0 -0.65156 0.157018 0.00264523 1.00794
H 6.55057 3.5138 13.3512 0 0 0 -0.665024 -0.474186 -0.280835 1.00794
H 5.22315 3.63988 14.565 0 0 0 -0.0574575 -0.355351 0.393672 1.00794
H 5.7982 5.11474 13.7061 0 0 0 -0.32104 -0.987062 -0.441713 1.00794
H 3.28107 7.68008 10.4123 0 0 0 -0.253246 -0.487878 -0.313271 1.00794
H 4.96004 7.55738 10.8542 0 0 0 0.80134 -0.0530889 -0.912969 1.00794
H 3.71537 6.7725 11.9222 0 0 0 0.73584 0.0592944 -0.0806956 1.00794
H 1.14699 6.79656 14.4365 0 0 0 0.187368 -0.542704 -0.207876 1.00794
H 2.21614 5.3552 14.6545 0 0 0 0.417477 -0.871337 -0.345004 1.00794
H 2.92948 7.01388 14.6851 0 0 0 0.142667 0.0880074 0.107601 1.00794
H -1.62959 8.4881 2.95261 0 0 0 1.51459 0.565001 -1.09445 1.00794
H -0.618393 8.84534 1.47995 0 0 0 -0.106878 0.541895 0.698542 1.00794
H -2.16449 9.70122 1.70406 0 0 0 0.662208 -1.07068 1.27545 1.00794
H 2.85632 12.4782 5.66706 0 0 0 0.312358 0.43653 0.441961 1.00794
H 3.58064 11.1184 4.75327 0 0 0 -0.63962 0.833943 0.222948 1.00794
H 3.54254 11.1435 6.55606 0 0 0 -0.0565213 -0.161632 -0.0438615 1.00794
H 1.76692 8.10256 11.8556 0 0 0 -0.46894 0.708595 -0.670085 1.00794
H 0.453601 9.00243 12.5679 0 0 0 0.665911 0.123745 0.428151 1.00794
H 2.10173 9.1248 13.2654 0 0 0 -0.212439 -1.29167 -0.0671246 1.00794
H 5.21788 9.94973 1.72292 0 0 0 0.0753126 -1.06594 0.558145 1.00794
H 3.98421 10.921 2.60071 0 0 0 -0.591579 0.107338 0.535103 1.00794
H 5.32873 10.1409 3.4947 0 0 0 0.284405 0.218905 1.00085 1.00794
H 11.5205 1.98593 9.7205 0 0 0 0.736049 -0.149539 -0.538803 1.00794
H 11.8456 0.536976 10.7456 0 0 0 0.80444 -0.000892937 -0.45099 1.00794
H 10.149 1.06349 10.4572 0 0 0 -0.158802 0.201015 0.441666 1.00794
H 6.50449 12.4772 6.86152 0 0 0 0.610365 -0.0764928 0.715623 1.00794
H 6.91682 11.9858 8.54105 0 0 0 -0.193757 1.208 0.408507 1.00794
H 13.4264 0.243855 8.03395 0 0 0 -0.156792 -0.242199 0.0760605 1.00794
H 7.71581 5.09384 3.67517 0 0 0 -0.217733 0.156914 -0.677792 1.00794
H 6.13769 4.41565 4.23109 0 0 0 -0.00350038 0.213365 -0.0869194 1.00794
H 6.89693 5.80889 5.11327 0 0 0 0.486781 -0.467529 -0.209028 1.00794
H 8.98078 3.26667 9.8629 0 0 0 0.426731 -0.786811 -0.283343 1.00794
H 8.75469 2.02922 8.57407 0 0 0 0.106156 -1.09893 -0.497448 1.00794
H 7.78216 3.51238 8.54928 0 0 0 -0.516625 -1.13812 -0.0160187 1.00794
H 6.88375 8.65195 7.80569 0 0 0 -0.563672 -0.237543 0.918839 1.00794
H 8.29201 8.39937 8.89103 0 0 0 0.238407 0.437896 -0.260256 1.00794
H 6.66191 8.69068 9.60238 0 0 0 0.252502 -0.616762 0.89378 1.00794
H 7.51376 6.14238 0.154386 0 0 0 -0.714998 0.520221 0.542583 1.00794