274
Timestep=0 Time=0.000000 pbc="T T T" Lattice="14.4941 0 0 -7.39153 13.0391 0 0.991947 1.03078 16.771" Potential_energy=903.0622026080397 Temperature=0 Stress="82214.6470163191 138.10806878281934 4021.555600417765 138.10806878281934 85894.52034311507 2972.200198303137 4021.555600417765 2972.200198303137 82729.97003916836" Properties=species:S:1:pos:R:3:vel:R:3:forces:R:3:mass:R:1
Si 12.8264 2.1663 4.0758 0 0 0 35.6609 18.92 -6.1325 28.0855
Si 2.86535 0.79911 7.43059 0 0 0 -1.24355 -35.3516 -18.5109 28.0855
Si -0.65412 3.09296 9.44057 0 0 0 -11.358 -15.927 -5.81918 28.0855
Si 0.9488 2.35664 5.41983 0 0 0 61.2632 3.96729 16.7994 28.0855
Si 1.87585 3.00127 11.2814 0 0 0 3.03112 -53.4386 1.15861 28.0855
Si -0.23304 4.13371 2.00878 0 0 0 34.6477 17.6428 -29.5371 28.0855
Si -1.34954 6.24356 0.02657 0 0 0 -0.374614 3.47829 13.1965 28.0855
Si 0.40192 4.90504 7.11073 0 0 0 50.205 -50.5117 -32.1638 28.0855
Si -1.13001 7.01932 5.42033 0 0 0 -12.7702 -66.3685 -14.8033 28.0855
Si 0.69454 4.87488 13.5449 0 0 0 -37.1827 -4.05795 -4.7681 28.0855
Si 11.7153 6.61165 15.0184 0 0 0 -43.8936 -14.439 14.2694 28.0855
Si -0.27234 7.12884 11.8672 0 0 0 30.8799 8.35591 -41.3449 28.0855
Si -2.5392 9.11135 7.2018 0 0 0 15.7736 -0.300439 -11.8797 28.0855
Si -5.36927 11.3686 9.25195 0 0 0 -21.9359 21.7976 -20.6287 28.0855
Si -3.44837 11.6334 5.53198 0 0 0 -38.6976 -37.996 -31.7959 28.0855
Si -1.1198 9.96116 12.863 0 0 0 7.27098 63.8659 -16.6775 28.0855
Si -2.68034 11.4275 10.6727 0 0 0 -6.94719 45.1397 22.2382 28.0855
Si -0.28878 13.0099 1.62117 0 0 0 -13.5359 40.2022 -0.189452 28.0855
Si 3.6008 2.66123 3.76673 0 0 0 73.1333 -65.2247 4.81481 28.0855
Si 5.67593 2.17185 0.11533 0 0 0 13.8912 -10.8802 -25.0439 28.0855
Si 4.26089 3.01777 9.30612 0 0 0 1.72455 -24.1855 32.6978 28.0855
Si 6.13907 3.01483 5.41585 0 0 0 20.7039 -41.6913 0.7389 28.0855
Si 4.08631 2.92904 15.2224 0 0 0 -4.68706 2.51041 6.90195 28.0855
Si 6.42797 2.93312 11.4251 0 0 0 -32.7505 -27.8523 34.8022 28.0855
Si 5.04964 4.57297 1.82577 0 0 0 -13.8128 1.99024 0.469747 28.0855
Si 1.01162 6.81432 3.199 0 0 0 -18.2038 10.9556 -52.1587 28.0855
Si 4.84562 7.70806 16.4488 0 0 0 -4.18632 54.7075 17.587 28.0855
Si 6.44105 4.53217 7.91163 0 0 0 14.2618 -41.4057 18.5383 28.0855
Si 5.21682 5.04543 13.1508 0 0 0 -28.6218 50.9572 -3.11083 28.0855
Si 2.09801 7.2928 15.0052 0 0 0 -32.2096 59.6911 -25.5813 28.0855
Si -1.04797 10.8567 3.70929 0 0 0 -38.9984 -17.842 0.677562 28.0855
Si 2.02549 12.6344 15.9786 0 0 0 -48.0945 -12.4887 -47.2238 28.0855
Si 2.82979 9.17636 7.64442 0 0 0 16.2518 -10.8751 22.426 28.0855
Si -0.71484 11.1461 8.50103 0 0 0 8.68024 7.9579 -28.2095 28.0855
Si 1.82474 10.7625 5.2137 0 0 0 41.3346 58.7734 -11.9774 28.0855
Si 11.5016 0.37708 1.88429 0 0 0 27.761 44.4408 -21.2111 28.0855
Si 8.26432 2.30804 3.36218 0 0 0 20.0776 20.4493 42.331 28.0855
Si 12.0858 1.05304 8.01244 0 0 0 -10.8418 22.1301 -32.3522 28.0855
Si 9.09749 2.3871 9.93129 0 0 0 -11.1541 -10.7438 -9.52366 28.0855
Si 13.1913 0.89722 12.8951 0 0 0 66.4013 -57.4828 -0.742901 28.0855
Si 11.5263 3.11309 11.4512 0 0 0 -0.0453194 -33.5163 -23.9447 28.0855
Si 9.37362 4.81535 2.1437 0 0 0 65.8733 19.8429 34.7828 28.0855
Si 6.04412 6.97806 3.46837 0 0 0 -52.8799 35.236 30.2778 28.0855
Si 9.32197 7.61685 16.5637 0 0 0 9.40829 20.2198 -22.6008 28.0855
Si 8.59396 7.85667 4.94721 0 0 0 35.1411 -33.1946 22.3211 28.0855
Si 7.07054 7.17122 14.5032 0 0 0 -22.5046 39.9718 -19.8914 28.0855
Si 3.86138 10.524 2.83914 0 0 0 28.2137 11.3103 -19.9494 28.0855
Si 7.3553 9.85556 7.21499 0 0 0 -33.6887 28.6293 33.4027 28.0855
Si 4.07402 11.365 9.58552 0 0 0 7.79851 -16.9097 36.28 28.0855
Si 4.70177 11.7735 14.8815 0 0 0 21.168 -19.6905 -33.7575 28.0855
Si 6.61616 11.5607 11.1662 0 0 0 -25.286 -26.9897 46.1088 28.0855
C 11.6647 2.94024 5.29141 0 0 0 -3.53846 6.26451 2.51587 12.0107
C 0.96799 2.9921 1.21038 0 0 0 7.8448 -3.79349 -2.78451 12.0107
C -2.12747 7.59551 1.02241 0 0 0 -6.48524 6.4394 4.61018 12.0107
C 2.16521 5.4086 7.20585 0 0 0 12.2351 4.89889 -5.06072 12.0107
C -2.49699 6.20949 4.48498 0 0 0 -6.69389 -0.326081 -5.55261 12.0107
C -0.0522 3.70824 14.7599 0 0 0 -1.00976 -4.28915 4.63538 12.0107
C 11.202 4.86617 15.4026 0 0 0 -0.502425 -6.04769 6.68953 12.0107
C -1.47111 7.09134 10.4703 0 0 0 -6.69429 2.44021 -3.724 12.0107
C -3.65172 7.88356 8.01623 0 0 0 -5.99867 -7.58811 1.65153 12.0107
C -2.27609 10.2396 14.289 0 0 0 -5.61938 0.40483 6.61483 12.0107
C -3.18257 12.7401 11.8542 0 0 0 -4.14361 7.6004 8.06112 12.0107
C 7.83489 3.13807 15.4551 0 0 0 2.2552 -2.5427 -9.74071 12.0107
C 6.67299 1.5147 6.33653 0 0 0 -0.744948 -11.8482 -1.63827 12.0107
C 4.08481 1.08459 15.0089 0 0 0 -1.99222 -4.89717 2.87686 12.0107
C 2.80211 6.82976 3.61338 0 0 0 -4.01907 1.85254 -6.76416 12.0107
C 7.15436 6.13822 8.47384 0 0 0 8.17736 6.70491 5.93928 12.0107
C 0.91415 11.1611 16.1497 0 0 0 -4.21574 -7.04001 -0.920708 12.0107
C 1.87209 8.29066 8.96667 0 0 0 0.474608 -5.11672 5.93901 12.0107
C 4.11949 8.15583 6.79128 0 0 0 2.88768 -4.39834 1.19329 12.0107
C 2.27989 12.469 5.73294 0 0 0 3.6775 5.79856 3.72604 12.0107
C 12.9166 0.26429 0.68699 0 0 0 1.8517 2.73405 -3.03587 12.0107
C 8.41179 0.80243 9.29003 0 0 0 -1.52723 -0.222703 6.30935 12.0107
C 10.6467 4.59301 12.1023 0 0 0 -7.47137 8.32731 1.30979 12.0107
C 7.84287 8.31125 0.24075 0 0 0 -4.05468 8.57939 3.8437 12.0107
C 7.65364 8.01252 12.9616 0 0 0 6.74124 4.09688 -9.41997 12.0107
C 5.68139 10.5875 3.24757 0 0 0 6.76156 0.87374 -0.348044 12.0107
C 6.68598 11.4182 6.48715 0 0 0 -2.97571 9.62505 -2.01474 12.0107
C 2.81866 11.32 10.9374 0 0 0 -8.23457 -0.27099 4.41609 12.0107
C 4.0182 10.3572 13.8983 0 0 0 3.6512 -9.92095 -1.41936 12.0107
C 6.35294 11.3603 15.6271 0 0 0 2.53443 -9.99457 0.367153 12.0107
O -0.28502 1.52772 4.74186 0 0 0 -6.77345 -55.3743 4.15925 15.9994
O 1.64359 1.51668 6.63009 0 0 0 -71.5085 -21.2354 49.4289 15.9994
O 0.51545 2.63062 10.4689 0 0 0 -17.2032 -83.342 22.8784 15.9994
O -1.25643 3.30758 2.97851 0 0 0 -64.6359 24.9413 -16.9011 15.9994
O -1.1907 4.86501 0.89604 0 0 0 -55.1622 -47.2531 -16.2732 15.9994
O -0.13259 4.3367 8.54651 0 0 0 12.0148 69.8001 42.3942 15.9994
O 0.27933 3.72835 5.97562 0 0 0 -60.9052 30.286 -34.2669 15.9994
O -0.62398 6.11288 6.69915 0 0 0 -37.0846 33.6797 61.0668 15.9994
O 1.61547 4.14923 12.3923 0 0 0 55.0488 47.9941 10.4329 15.9994
O -1.23347 6.88839 15.4762 0 0 0 40.4823 0.681978 -71.3889 15.9994
O -0.46042 5.75278 12.7755 0 0 0 -55.2657 -9.67377 1.26126 15.9994
O -1.70063 8.44497 5.97188 0 0 0 14.7118 52.1054 -51.8492 15.9994
O -5.15307 12.802 8.50919 0 0 0 -46.0023 38.803 35.5238 15.9994
O -3.37234 10.3872 6.57719 0 0 0 -81.1981 -15.9996 50.6059 15.9994
O -3.58225 13.0388 6.36725 0 0 0 70.022 41.7319 -17.5813 15.9994
O -0.51858 8.44162 12.838 0 0 0 20.0242 -31.0074 82.4273 15.9994
O -3.9947 10.8052 9.90788 0 0 0 18.3425 -66.658 -0.542848 15.9994
O -1.94008 10.1933 11.4492 0 0 0 -2.53987 -64.0713 -24.6641 15.9994
O 2.05073 2.7072 4.27135 0 0 0 -44.9267 46.9505 -67.6922 15.9994
O 5.83545 0.80276 1.01724 0 0 0 -64.889 -24.516 6.90143 15.9994
O 3.75539 1.90386 8.22793 0 0 0 52.0554 4.66342 -41.7879 15.9994
O 3.01552 3.53148 10.2235 0 0 0 -14.0454 85.278 -2.66106 15.9994
O 4.5378 2.94833 5.07342 0 0 0 -37.1042 9.46192 66.7197 15.9994
O 5.08944 3.31218 16.4631 0 0 0 -42.0886 38.9843 42.9061 15.9994
O 5.41689 2.35235 10.2622 0 0 0 14.3828 -72.1399 -10.8333 15.9994
O 3.84969 3.83799 2.65902 0 0 0 -73.0278 31.6764 -19.0962 15.9994
O 5.97975 3.46975 1.07727 0 0 0 86.7721 1.23285 0.868528 15.9994
O 0.5307 5.28261 2.87679 0 0 0 43.9639 -45.3589 67.0319 15.9994
O 0.15279 7.37748 4.47747 0 0 0 37.0615 69.4393 16.2102 15.9994
O 4.35141 5.54897 0.72967 0 0 0 -24.0703 -20.856 -2.208 15.9994
O 4.91143 4.29107 8.51939 0 0 0 -23.2642 65.7625 -13.5528 15.9994
O 6.40007 4.40591 6.26371 0 0 0 20.3089 40.4723 -18.1379 15.9994
O 4.57541 3.73605 13.8759 0 0 0 -15.8888 -67.6517 -50.0016 15.9994
O 5.97424 4.46183 11.8173 0 0 0 8.1743 51.4301 -41.4515 15.9994
O 1.71804 5.86073 14.3512 0 0 0 48.6145 -51.1204 14.183 15.9994
O 3.59696 7.09018 15.6145 0 0 0 17.2523 -77.8216 -19.3857 15.9994
O 1.12047 7.72914 16.2403 0 0 0 19.4153 53.8148 50.5906 15.9994
O -0.85069 11.6391 2.28788 0 0 0 -21.8193 -63.1356 -63.4424 15.9994
O -2.09498 11.733 4.62602 0 0 0 33.8427 70.3707 -3.36646 15.9994
O 0.76167 12.6653 0.43412 0 0 0 72.7839 43.7919 -4.75741 15.9994
O -1.42815 9.68682 8.26529 0 0 0 19.6154 -47.6218 39.3986 15.9994
O -1.65766 12.0261 9.53305 0 0 0 6.15855 55.4021 -4.99466 15.9994
O 0.36433 10.7193 4.48565 0 0 0 3.63552 -22.6364 14.4888 15.9994
O 1.76818 9.78205 6.52797 0 0 0 -65.7972 -29.518 20.6279 15.9994
O 12.0677 0.9315 3.33315 0 0 0 -26.9563 -57.3399 43.1971 15.9994
O 7.85777 0.85195 2.76341 0 0 0 29.0278 -60.4794 59.2529 15.9994
O 6.96927 3.0746 4.0027 0 0 0 -30.8265 50.9642 -45.1108 15.9994
O 13.4559 1.8112 8.5104 0 0 0 57.5983 -40.2142 -34.0422 15.9994
O 7.96282 3.05983 10.9217 0 0 0 50.8261 58.5812 20.476 15.9994
O 12.5276 3.60913 10.2482 0 0 0 -31.0008 74.4196 -13.8115 15.9994
O 10.4286 2.05091 10.8467 0 0 0 3.0935 -50.6832 5.36973 15.9994
O 12.4293 2.29705 12.5506 0 0 0 6.26864 67.6857 63.89 15.9994
O 8.9069 3.23862 2.18439 0 0 0 10.3415 -27.8559 -67.8495 15.9994
O 5.96848 5.47449 2.82033 0 0 0 83.4157 -40.1857 29.3391 15.9994
O 10.794 7.69109 15.8634 0 0 0 36.2088 53.1814 5.04613 15.9994
O 8.41177 5.66449 1.13706 0 0 0 -84.2542 -5.55859 33.5549 15.9994
O 7.59053 7.49196 3.69861 0 0 0 31.3507 8.68904 -70.0626 15.9994
O 6.32852 5.75493 14.1253 0 0 0 27.8915 -56.464 49.9288 15.9994
O 8.32207 6.84568 15.5041 0 0 0 15.9598 -69.073 0.00135721 15.9994
O 6.02 8.09534 15.3713 0 0 0 12.3923 66.1769 -18.7147 15.9994
O 3.40109 11.9693 2.20498 0 0 0 -72.9444 -4.62821 -30.808 15.9994
O 2.97209 10.1871 4.18589 0 0 0 27.0067 -65.6897 26.2222 15.9994
O 7.88682 8.86784 6.01558 0 0 0 -28.6984 18.9313 -22.1539 15.9994
O 8.59727 10.2301 8.23125 0 0 0 42.5787 -68.7368 -24.9308 15.9994
O 3.66393 10.4294 8.32559 0 0 0 21.9552 19.0679 -71.3387 15.9994
O 4.29121 12.8744 9.0092 0 0 0 -42.1638 39.593 62.2242 15.9994
O 4.8476 13.1009 13.9063 0 0 0 -74.2631 25.108 19.7026 15.9994
O 3.60979 12.1905 16.043 0 0 0 28.9327 -10.8643 64.4944 15.9994
O 8.06971 11.6452 10.4573 0 0 0 48.2731 32.2191 56.023 15.9994
O 5.53224 10.8421 10.1763 0 0 0 5.47915 -63.0788 -29.3573 15.9994
O 6.0847 13.064 11.5377 0 0 0 -19.6428 46.373 -66.41 15.9994
H 2.32464 1.7748 11.9586 0 0 0 -12.6512 14.1704 6.36111 1.00794
H 1.15451 7.16935 11.4476 0 0 0 -8.85685 -0.326047 -3.26757 1.00794
H -4.63523 11.4693 4.66393 0 0 0 3.09003 -0.154699 1.28532 1.00794
H 11.5806 6.98783 13.5913 0 0 0 0.331235 8.64718 14.2183 1.00794
H 0.03389 10.9115 12.9045 0 0 0 -7.5158 -4.35843 1.01357 1.00794
H 3.87974 1.33998 3.16764 0 0 0 1.96129 1.7167 3.13453 1.00794
H 2.7323 3.4094 15.5313 0 0 0 18.48 -4.36164 -15.1726 1.00794
H 6.36639 2.00493 12.5711 0 0 0 2.16818 4.84341 0.105826 1.00794
H 0.7277 7.69526 2.03435 0 0 0 6.87478 -4.26898 4.81634 1.00794
H 3.47058 7.9074 0.39529 0 0 0 -2.85704 -8.13515 -5.4081 1.00794
H 7.26359 3.3987 8.39099 0 0 0 -18.1143 19.0697 -15.4821 1.00794
H 4.20333 6.02773 12.7282 0 0 0 -1.31295 -1.64024 3.60375 1.00794
H 2.08495 8.33911 13.9724 0 0 0 -2.41954 -3.77526 -0.266326 1.00794
H -1.61899 9.54118 3.38764 0 0 0 -0.10513 1.91566 5.76448 1.00794
H 1.78261 13.3546 14.6939 0 0 0 -0.427438 -5.70323 5.85314 1.00794
H -0.59653 11.8955 7.23128 0 0 0 1.8715 -6.97028 3.89456 1.00794
H 0.59685 10.8985 9.12645 0 0 0 -19.4425 2.12081 -18.2207 1.00794
H 10.4577 1.29035 1.36813 0 0 0 6.34885 -1.96319 -0.764369 1.00794
H 9.25092 2.07618 4.42472 0 0 0 -7.85762 10.7382 -5.94704 1.00794
H 12.3734 0.53482 6.66323 0 0 0 -0.180352 3.81299 5.60993 1.00794
H 10.9584 2.01462 7.99973 0 0 0 16.235 -5.68782 -9.85246 1.00794
H 9.47196 3.42758 8.93788 0 0 0 -1.88633 -6.93504 -0.423882 1.00794
H 14.4909 1.19094 13.5309 0 0 0 -3.23029 -4.18775 -0.251478 1.00794
H 10.77 4.86078 1.64963 0 0 0 -5.8879 1.29839 4.18562 1.00794
H 9.27322 5.36482 3.51743 0 0 0 2.30734 -4.07906 -7.45182 1.00794
H 5.38927 6.96658 4.78884 0 0 0 5.11645 -2.85446 -9.26706 1.00794
H 5.42636 7.91291 2.49546 0 0 0 1.29616 -6.32049 5.4841 1.00794
H 9.78126 8.52118 4.35076 0 0 0 -2.5593 -2.78712 5.6092 1.00794
H 8.95557 6.60247 5.66115 0 0 0 -3.90712 3.75796 -5.98907 1.00794
H 3.52998 9.47316 1.84546 0 0 0 5.33069 8.36515 7.67485 1.00794
H 6.38427 9.09921 8.02938 0 0 0 0.486726 16.3472 -0.361707 1.00794
H 6.77352 10.7709 12.4039 0 0 0 -1.55214 3.23054 -3.55942 1.00794
H 11.0314 2.18524 5.76664 0 0 0 -4.85531 -1.89187 -8.06643 1.00794
H 10.999 3.63104 4.75937 0 0 0 -4.80828 -0.196429 -3.80302 1.00794
H 12.1866 3.51365 6.06685 0 0 0 6.41116 2.64766 3.21054 1.00794
H 0.51242 2.51445 0.33745 0 0 0 -6.08717 6.25775 9.71424 1.00794
H 1.28311 2.2039 1.90517 0 0 0 -2.25265 -5.01125 3.48966 1.00794
H 1.86294 3.52921 0.87425 0 0 0 3.22632 9.34706 -0.492632 1.00794
H -2.19483 8.52977 0.45153 0 0 0 2.01491 1.02012 0.732328 1.00794
H -1.54936 7.80863 1.92948 0 0 0 2.53253 -3.70121 2.05626 1.00794
H -3.14404 7.30394 1.31605 0 0 0 -5.80221 -2.88905 1.57415 1.00794
H 2.35003 6.18918 6.46166 0 0 0 -35.256 -25.9573 4.6184 1.00794
H 2.82005 4.56267 6.95893 0 0 0 0.220598 -7.05179 -2.35202 1.00794
H 2.46273 5.78608 8.18858 0 0 0 -3.5458 -2.61369 8.34475 1.00794
H -2.1772 5.31483 3.94116 0 0 0 6.03021 3.75134 0.427911 1.00794
H -2.90235 6.93055 3.76279 0 0 0 -1.24327 3.41419 -3.7833 1.00794
H 11.1848 5.92984 5.16915 0 0 0 -1.30205 0.0259676 6.88803 1.00794
H 0.65017 2.9054 15.0131 0 0 0 3.27022 -4.61874 -1.38424 1.00794
H 13.5237 3.25542 14.3787 0 0 0 4.67689 5.27831 2.63035 1.00794
H -0.29385 4.26297 15.6754 0 0 0 -2.72772 1.35287 3.40487 1.00794
H 11.6303 4.1445 14.6981 0 0 0 -1.66401 1.96797 -4.28581 1.00794
H 10.1093 4.77346 15.3594 0 0 0 -2.89059 4.81083 -1.71039 1.00794
H 11.5321 4.58339 16.4125 0 0 0 3.21656 -0.182025 3.6519 1.00794
H -1.3268 6.19191 9.85805 0 0 0 2.90929 -3.08809 -1.55573 1.00794
H -1.34701 7.97987 9.84031 0 0 0 5.63547 -1.34071 4.3277 1.00794
H -2.5013 7.09137 10.8534 0 0 0 -4.89384 -0.0412615 4.64852 1.00794
H -3.08044 6.98006 8.26907 0 0 0 2.5043 -5.18064 -0.959995 1.00794
H 10.0192 7.59285 7.35168 0 0 0 3.00805 1.34501 2.25788 1.00794
H 10.4095 8.29691 8.93521 0 0 0 -0.91592 3.99022 6.27664 1.00794
H -1.84593 9.90897 15.2414 0 0 0 5.48417 -1.59283 -4.63013 1.00794
H -3.21499 9.68749 14.1419 0 0 0 -4.5971 -2.85794 -5.3471 1.00794
H -2.51697 11.3089 14.3786 0 0 0 0.317935 4.52406 -1.1993 1.00794
H -3.60391 13.6016 11.3283 0 0 0 9.43274 -8.77389 -13.3388 1.00794
H -2.32846 13.0996 12.4419 0 0 0 7.85023 -3.32058 0.151547 1.00794
H -3.94513 12.3492 12.5413 0 0 0 -4.73408 -6.3558 0.905924 1.00794
H 7.80906 4.07233 14.8837 0 0 0 2.63196 1.79 -0.0289407 1.00794
H 7.58418 2.30638 14.7805 0 0 0 -5.48101 -4.31489 -1.80588 1.00794
H 8.85718 2.96645 15.8178 0 0 0 4.23082 -0.606775 4.48274 1.00794
H 7.72921 1.60791 6.61879 0 0 0 3.42035 8.81685 -1.65037 1.00794
H 6.55711 0.63572 5.68788 0 0 0 1.32896 -1.30961 -5.17932 1.00794
H 6.07512 1.33508 7.23675 0 0 0 -10.0159 5.5999 -1.03257 1.00794
H -2.31732 13.7348 14.7298 0 0 0 8.36348 4.13518 -0.752943 1.00794
H -4.03617 13.8016 14.255 0 0 0 -7.15382 5.41061 -1.67576 1.00794
H -3.58499 13.6736 15.9749 0 0 0 -1.92214 -2.78268 4.05414 1.00794
H 3.06047 7.78646 4.08147 0 0 0 -2.6639 0.926332 -2.52964 1.00794
H 3.37422 6.73666 2.68297 0 0 0 -11.1004 3.36096 -1.90513 1.00794
H 3.07283 5.99907 4.27632 0 0 0 -2.36265 -6.89265 3.94174 1.00794
H 8.23044 6.15902 8.24656 0 0 0 5.04059 -1.83315 -1.87754 1.00794
H 7.03312 6.23003 9.56335 0 0 0 -1.31808 -0.624092 6.19471 1.00794
H 6.69027 7.00934 7.99697 0 0 0 0.825006 -11.1877 -4.01541 1.00794
H 0.16249 9.55624 0.28377 0 0 0 4.92086 -0.440527 6.84275 1.00794
H 1.0117 10.4897 15.2855 0 0 0 3.54483 -1.35135 -6.12975 1.00794
H -0.134993 11.4847 16.2164 0 0 0 -4.31792 5.37827 -0.386289 1.00794
H 2.5298 7.62593 9.54497 0 0 0 7.48344 -0.622158 1.72739 1.00794
H 1.05397 7.69208 8.54679 0 0 0 -4.47186 -1.25973 -6.95326 1.00794
H 1.42704 9.00656 9.66856 0 0 0 0.709096 1.01796 3.84028 1.00794
H 3.70161 7.43676 6.08476 0 0 0 21.1998 26.7158 -0.356704 1.00794
H 4.71923 7.60012 7.52303 0 0 0 -7.7581 -1.09866 5.02247 1.00794
H 4.79018 8.81637 6.22697 0 0 0 -0.735695 5.00831 -4.79479 1.00794
H 2.38166 13.1344 4.86853 0 0 0 1.96747 -8.13835 -5.73332 1.00794
H 3.24882 12.4264 6.24738 0 0 0 -4.55306 -8.60413 -2.81127 1.00794
H 1.53506 12.8862 6.41998 0 0 0 -1.42812 -6.68583 0.916107 1.00794
H 13.5425 1.09402 16.4432 0 0 0 -7.55983 4.046 -2.83921 1.00794
H 6.2569 12.5333 0.96812 0 0 0 1.33817 -4.91195 6.58242 1.00794
H 13.4348 1.23116 0.66594 0 0 0 -8.79113 -3.35773 2.40383 1.00794
H 0.80137 13.2211 10.1695 0 0 0 -9.46993 10.9623 1.66683 1.00794
H 1.71461 13.2964 8.64264 0 0 0 6.45887 1.83788 -3.36209 1.00794
H 7.46674 0.97046 8.76688 0 0 0 1.7039 3.85184 7.76164 1.00794
H 10.0988 5.05541 11.2666 0 0 0 -2.32611 4.07831 -3.29848 1.00794
H 11.348 5.33455 12.4953 0 0 0 5.0004 -15.5658 -12.6274 1.00794
H 9.91593 4.32968 12.8767 0 0 0 -4.05288 -6.15071 5.13538 1.00794
H 8.86757 10.0075 16.1388 0 0 0 2.69045 0.152575 -7.79254 1.00794
H 8.55711 8.69121 0.98689 0 0 0 4.08587 1.80074 3.82625 1.00794
H 6.83901 8.36327 0.67907 0 0 0 -5.40406 -6.47009 1.15797 1.00794
H 6.82257 8.22582 12.2741 0 0 0 -8.47646 -1.12279 -0.679001 1.00794
H 8.36378 7.3528 12.4401 0 0 0 3.51743 -4.6873 -1.78751 1.00794
H 8.16998 8.95902 13.1738 0 0 0 2.83595 4.46961 7.71478 1.00794
H 6.28641 10.3865 2.35049 0 0 0 0.072091 0.0908528 -6.79043 1.00794
H 5.97193 9.85316 4.00914 0 0 0 -5.22906 -3.16164 5.84057 1.00794
H 5.94923 11.5841 3.6261 0 0 0 -0.351318 5.09273 1.39067 1.00794
H 6.67546 12.2025 7.25476 0 0 0 6.35974 -2.80872 5.7963 1.00794
H 5.6613 11.2986 6.11384 0 0 0 -7.00243 -7.3653 -0.584517 1.00794
H 7.30931 11.7817 5.65895 0 0 0 8.02136 -1.81079 -3.77061 1.00794
H 2.79791 10.3211 11.3915 0 0 0 0.025055 -7.73401 -3.83811 1.00794
H 1.81454 11.53 10.5566 0 0 0 16.1934 -6.74491 13.1736 1.00794
H 3.05064 12.0563 11.7183 0 0 0 4.46977 6.99054 2.05096 1.00794
H 4.03504 9.44502 14.502 0 0 0 -0.529994 8.48272 -2.09301 1.00794
H 4.60716 10.1497 12.9952 0 0 0 5.43483 2.34304 -1.97802 1.00794
H 2.97995 10.5414 13.5965 0 0 0 -6.14769 5.80761 5.3956 1.00794
H 6.89535 10.6969 14.9399 0 0 0 2.74826 -1.54138 -6.48154 1.00794
H 6.23105 10.8173 16.5729 0 0 0 -6.59177 -0.985019 5.55775 1.00794
H 6.97155 12.2454 15.8135 0 0 0 3.13708 1.38415 -5.23371 1.00794
274
Timestep=100 Time=100.000000 pbc="T T T" Lattice="14.4941 0 0 -7.39153 13.0391 0 0.991947 1.03078 16.771" Potential_energy=-46.20931549500145 Temperature=0 Stress="15400.878711443898 -2541.8286827052493 2296.5439283454057 -2541.8286827052493 9307.309494360097 -97.6474429932693 2296.5439283454057 -97.6474429932693 20484.310870011308" Properties=species:S:1:pos:R:3:vel:R:3:forces:R:3:mass:R:1
Si 13.2389 1.92144 3.59294 0 0 0 -0.316422 -0.661209 0.585669 28.0855
Si 3.1218 0.788882 7.4471 0 0 0 -0.807931 -2.99056 3.94276 28.0855
Si -0.422272 2.97752 9.8064 0 0 0 2.52468 -0.466369 0.697707 28.0855
Si 1.15838 2.12943 5.4131 0 0 0 1.11876 -2.49092 0.929337 28.0855
Si 2.18816 3.17321 11.3354 0 0 0 -1.18615 -0.516045 0.78242 28.0855
Si -0.207602 4.13714 1.87433 0 0 0 0.133016 0.605661 -0.196583 28.0855
Si -1.20571 6.41664 0.0860408 0 0 0 0.11034 -0.207532 0.390475 28.0855
Si 0.381527 4.43411 7.3021 0 0 0 -0.26009 -0.706646 0.0306902 28.0855
Si -1.05151 6.80032 5.94486 0 0 0 0.180646 -0.407751 0.771612 28.0855
Si 0.99616 4.75659 13.5573 0 0 0 -1.56632 0.218149 0.882048 28.0855
Si 11.9294 6.72497 15.2009 0 0 0 0.435633 -0.384442 -2.16175 28.0855
Si -0.201312 7.00589 12.0092 0 0 0 -2.11115 1.58576 -0.0952222 28.0855
Si -2.50892 8.98628 7.42859 0 0 0 0.016562 0.277506 -0.188796 28.0855
Si -5.45687 11.6375 9.1485 0 0 0 -3.51205 -1.37018 3.14183 28.0855
Si -2.8687 11.5795 5.85158 0 0 0 0.732626 -1.35749 -0.544915 28.0855
Si -1.15168 9.83069 12.619 0 0 0 0.697647 0.449815 -1.20629 28.0855
Si -3.02553 11.3986 10.9608 0 0 0 -0.391495 0.543598 0.137399 28.0855
Si -0.631756 12.975 2.03603 0 0 0 0.590328 0.844572 0.000354524 28.0855
Si 3.62561 3.19216 3.97585 0 0 0 -0.642551 -0.256065 0.394523 28.0855
Si 5.56118 2.17202 0.436734 0 0 0 0.625321 0.0544008 0.0405351 28.0855
Si 4.25359 3.21635 9.08922 0 0 0 0.853601 -1.27568 1.36463 28.0855
Si 6.24721 3.36523 5.49188 0 0 0 -1.03202 0.712337 -0.126793 28.0855
Si 4.38608 2.58302 15.3429 0 0 0 1.70018 0.90854 0.56519 28.0855
Si 6.4199 3.09228 11.2498 0 0 0 -0.299882 0.112954 -0.238548 28.0855
Si 4.91334 4.78046 1.65696 0 0 0 -0.744472 -0.222597 1.08124 28.0855
Si 0.551445 6.5091 3.51646 0 0 0 -0.0741047 -0.515384 -1.37582 28.0855
Si 4.83193 7.52713 16.1573 0 0 0 -0.790384 -1.15047 -1.04003 28.0855
Si 6.55849 4.76191 8.03302 0 0 0 0.324412 2.02251 -1.27274 28.0855
Si 5.43329 4.63589 13.4954 0 0 0 -0.20076 0.761237 -0.793329 28.0855
Si 2.04353 7.23331 15.0358 0 0 0 -0.754444 -0.326628 0.779525 28.0855
Si -0.830686 10.6266 3.86833 0 0 0 -1.19128 -0.245127 -0.631119 28.0855
Si 1.89712 12.843 16.4252 0 0 0 -0.55028 -1.25036 -0.0179702 28.0855
Si 2.78687 9.38057 7.44391 0 0 0 -0.532376 1.05924 1.61044 28.0855
Si -0.98806 11.1463 8.9693 0 0 0 -1.23009 -0.883221 -0.454816 28.0855
Si 1.99737 10.5472 4.87147 0 0 0 0.0520372 -0.980781 -1.1937 28.0855
Si 11.4688 0.326665 1.83345 0 0 0 -0.857695 -2.06116 0.110017 28.0855
Si 8.04159 2.31512 3.41713 0 0 0 -1.12226 0.428613 1.38183 28.0855
Si 12.2177 1.32131 8.15795 0 0 0 1.49343 -0.917301 1.05907 28.0855
Si 9.10629 2.3833 10.0375 0 0 0 -0.148508 -0.346972 2.831 28.0855
Si 5.56983 13.7416 12.7435 0 0 0 0.28699 -1.34545 0.803655 28.0855
Si 11.5963 3.09436 11.5683 0 0 0 1.19034 -0.522654 -0.0155337 28.0855
Si 8.91836 4.45505 1.63288 0 0 0 1.24382 -0.572468 0.211039 28.0855
Si 5.97518 6.85758 3.53159 0 0 0 0.0962862 1.62569 -1.00748 28.0855
Si 9.32371 7.44748 16.2387 0 0 0 1.74587 0.747564 -0.861193 28.0855
Si 8.11364 7.9755 5.27299 0 0 0 -0.246556 0.357493 0.42537 28.0855
Si 7.09545 7.10931 14.2801 0 0 0 -0.410808 -1.47257 0.697159 28.0855
Si 3.97802 10.5082 2.60566 0 0 0 -0.530964 0.147203 0.552758 28.0855
Si 7.32943 10.3498 6.90774 0 0 0 1.20451 0.943354 0.656977 28.0855
Si 3.93295 11.6389 9.21043 0 0 0 -1.29643 1.83151 1.02009 28.0855
Si 4.22514 11.9178 14.6991 0 0 0 -1.18717 0.361254 -0.309073 28.0855
Si 6.37016 11.6222 10.7362 0 0 0 -2.55687 1.02966 0.172779 28.0855
C 12.2241 3.14264 4.56674 0 0 0 -0.972513 0.909468 1.28215 12.0107
C 1.35022 3.85676 0.955738 0 0 0 -0.12083 -0.913832 -0.302471 12.0107
C -2.13145 7.80312 0.953872 0 0 0 0.0458183 0.133929 -0.144155 12.0107
C 2.06766 5.16656 6.94291 0 0 0 -0.992918 -0.170439 0.0345118 12.0107
C -2.53296 6.5641 4.80806 0 0 0 0.880104 0.601746 0.0683285 12.0107
C 0.508781 3.13408 14.3499 0 0 0 0.367512 0.757835 0.482761 12.0107
C 11.7801 4.89017 15.5009 0 0 0 -0.519839 0.407939 -0.281526 12.0107
C -1.18415 6.94791 10.4546 0 0 0 -0.417613 -0.00545676 -0.514992 12.0107
C -3.70615 7.67745 8.02571 0 0 0 0.874965 0.975901 -1.23742 12.0107
C -1.4976 10.7415 14.1959 0 0 0 -0.044853 0.391665 -0.106795 12.0107
C -3.84892 12.5014 12.2186 0 0 0 0.103433 -0.909096 -0.278078 12.0107
C 7.88763 3.10923 15.8832 0 0 0 -0.722115 0.501993 0.353043 12.0107
C 6.78231 1.79601 6.37302 0 0 0 -0.77411 1.51676 -0.463008 12.0107
C -2.93423 13.7901 15.7014 0 0 0 0.14327 0.423873 0.896878 12.0107
C 2.27149 6.95197 3.08077 0 0 0 -0.415638 0.58304 0.833493 12.0107
C 7.41802 6.20427 8.83308 0 0 0 0.868335 -0.292644 0.695317 12.0107
C 1.18225 11.1904 16.8371 0 0 0 0.428744 -0.567288 0.290213 12.0107
C 2.04507 8.40595 8.8668 0 0 0 -0.0949938 0.208116 -1.01985 12.0107
C 4.21508 8.36292 6.81177 0 0 0 -0.807823 0.287745 0.58974 12.0107
C 1.97074 12.3173 5.43459 0 0 0 0.664537 0.327136 -0.513667 12.0107
C 12.6606 0.213086 0.388453 0 0 0 -0.809676 0.356135 0.710277 12.0107
C 8.27431 0.80294 9.54788 0 0 0 0.988369 0.188938 0.216254 12.0107
C 10.7337 4.58923 12.2588 0 0 0 -0.672477 -0.00340945 -0.831456 12.0107
C 7.72148 7.955 0.337649 0 0 0 -0.487382 0.154176 0.175176 12.0107
C 6.72503 7.83339 12.6032 0 0 0 0.78995 0.670193 -0.136521 12.0107
C 5.85224 10.529 2.46471 0 0 0 -0.414761 0.0917961 0.453781 12.0107
C 6.50517 11.8869 6.36273 0 0 0 -0.491174 1.42033 -0.45431 12.0107
C 3.04676 11.0536 10.7424 0 0 0 -0.335651 0.367252 0.851014 12.0107
C 3.24768 10.4301 14.2381 0 0 0 -0.0202716 1.06319 -0.0747225 12.0107
C 5.92557 11.2608 15.1303 0 0 0 0.903144 -0.209865 0.283607 12.0107
O 0.117551 1.3075 4.3718 0 0 0 -0.556011 -0.976667 0.089449 15.9994
O 2.15606 0.873739 6.04528 0 0 0 -2.42458 1.74899 -3.05666 15.9994
O 0.59319 2.5566 11.1222 0 0 0 -1.26436 0.994197 -0.771662 15.9994
O -0.802242 2.58448 2.11462 0 0 0 -1.35048 0.118783 0.329379 15.9994
O -1.38315 4.97753 0.978802 0 0 0 -0.347215 1.11501 -0.246761 15.9994
O 0.441615 4.15534 8.95395 0 0 0 -0.973957 -0.193348 -0.466856 15.9994
O 0.15838 2.90767 6.56052 0 0 0 0.857172 0.46315 -0.785258 15.9994
O -0.947035 5.50005 7.05637 0 0 0 -0.509876 0.773693 -1.85026 15.9994
O 2.1921 4.50852 12.3848 0 0 0 -0.397734 -0.105359 0.324715 15.9994
O -0.967403 7.2137 15.3681 0 0 0 -0.546743 -0.573539 -0.612155 15.9994
O -0.337045 5.51921 12.8289 0 0 0 0.760011 -0.19403 -0.648292 15.9994
O -1.14868 8.29932 6.71736 0 0 0 0.34038 -0.185122 -0.563637 15.9994
O -5.21665 13.2995 8.78537 0 0 0 1.36182 1.30663 -1.85336 15.9994
O -3.36541 10.0319 6.37564 0 0 0 1.15326 1.13602 -0.781636 15.9994
O -2.99373 12.7179 7.14145 0 0 0 1.40667 -0.222839 0.0144467 15.9994
O -0.83219 8.21856 13.0167 0 0 0 1.13451 -1.24224 0.746131 15.9994
O -4.02694 10.9581 9.67756 0 0 0 0.459805 -0.0806148 0.408954 15.9994
O -2.553 9.93444 11.6827 0 0 0 0.457157 1.10454 -1.58051 15.9994
O 2.0109 3.274 4.49129 0 0 0 -0.241933 0.160353 0.292728 15.9994
O 5.48969 0.707269 1.24726 0 0 0 0.713954 -0.65028 -0.0396299 15.9994
O 3.82398 2.32698 7.6908 0 0 0 1.05873 1.81888 -0.262234 15.9994
O 2.82406 3.69585 9.8621 0 0 0 0.786347 -0.906132 -0.249897 15.9994
O 4.5634 3.39927 5.37069 0 0 0 -0.18477 0.679526 -0.441537 15.9994
O 4.99273 3.46062 16.6267 0 0 0 -0.952036 -0.140616 -0.77102 15.9994
O 5.3728 2.37751 10.0837 0 0 0 0.0424791 1.22217 0.0420349 15.9994
O 3.79425 4.51851 2.91369 0 0 0 0.300697 0.717293 0.231899 15.9994
O 5.91221 3.42869 1.5019 0 0 0 -0.304584 -0.50988 1.11612 15.9994
O 0.139254 4.87856 3.35376 0 0 0 0.360353 0.0366594 0.495043 15.9994
O 0.385871 6.94547 5.10964 0 0 0 0.432288 0.108651 0.339921 15.9994
O 4.08582 5.01166 0.177379 0 0 0 -0.689752 0.73362 0.345418 15.9994
O 4.95454 4.66896 8.55462 0 0 0 0.233718 0.218439 0.205857 15.9994
O 6.70864 4.74214 6.35789 0 0 0 0.795524 -0.411907 1.63644 15.9994
O 5.28976 3.02166 14.0099 0 0 0 -1.07301 -0.595536 1.02143 15.9994
O 5.74878 4.53338 11.8465 0 0 0 -0.311998 -1.27846 -0.239774 15.9994
O 1.59868 5.61126 14.8889 0 0 0 0.712677 1.13545 -0.0653766 15.9994
O 3.72185 7.38314 14.8901 0 0 0 -0.31442 0.370413 0.73077 15.9994
O 1.41954 7.80662 16.5175 0 0 0 0.587471 -0.877261 0.206077 15.9994
O -1.31984 11.4957 2.50925 0 0 0 0.411322 -1.71054 -0.147851 15.9994
O -1.24818 11.4812 5.28767 0 0 0 -1.4329 -0.230627 1.25207 15.9994
O 0.747955 12.7804 1.04595 0 0 0 1.04787 -0.063181 0.0865031 15.9994
O -1.9447 9.75096 8.8151 0 0 0 0.754408 0.0812258 -0.267277 15.9994
O -1.66605 12.0827 10.2186 0 0 0 -0.473737 -0.892807 0.338615 15.9994
O 0.82797 10.3264 3.67484 0 0 0 0.790488 -0.87505 0.488227 15.9994
O 1.6769 9.49968 6.172 0 0 0 0.325095 -0.426546 0.841563 15.9994
O 12.2551 0.588857 3.30242 0 0 0 0.979709 0.506054 0.689466 15.9994
O 7.2414 0.807765 3.40706 0 0 0 0.3749 0.185291 -0.310843 15.9994
O 6.94778 3.47285 3.97077 0 0 0 0.861295 -1.0315 -0.507405 15.9994
O 13.7594 1.59881 8.8438 0 0 0 -1.15984 0.993503 -1.14474 15.9994
O 7.99258 3.47103 10.7184 0 0 0 1.11817 -0.0753287 -0.708923 15.9994
O 12.5864 3.66125 10.3022 0 0 0 -0.705074 -1.29311 1.46074 15.9994
O 10.3932 1.9985 11.0808 0 0 0 0.0257565 0.43042 -1.23155 15.9994
O 12.5732 2.35882 12.7435 0 0 0 0.156551 1.24848 -1.47149 15.9994
O 8.57573 2.81215 1.89653 0 0 0 0.844211 0.460963 -1.05494 15.9994
O 5.86131 6.14394 1.99686 0 0 0 0.491066 0.623587 0.698657 15.9994
O 10.9847 7.6445 16.2268 0 0 0 0.27656 0.11495 -0.450007 15.9994
O 7.99717 4.98405 0.305497 0 0 0 -1.91877 0.408573 0.466737 15.9994
O 7.57913 7.34527 3.79726 0 0 0 0.4328 -0.934818 -1.16033 15.9994
O 6.69805 5.43971 14.3269 0 0 0 0.0406324 1.27103 0.314509 15.9994
O 8.74539 7.32913 14.6311 0 0 0 -0.720415 0.399052 1.1127 15.9994
O 6.26817 8.01314 15.4467 0 0 0 1.09772 0.24886 0.797915 15.9994
O 3.23973 11.9076 1.99316 0 0 0 0.888115 0.937221 -0.524853 15.9994
O 3.54407 10.237 4.23115 0 0 0 0.191368 -0.441622 -0.548339 15.9994
O 7.60649 9.57076 5.43058 0 0 0 -0.245528 0.000298957 -1.47507 15.9994
O 8.76117 10.7111 7.73175 0 0 0 0.850694 -0.328597 -2.09616 15.9994
O 3.21538 10.9899 7.82254 0 0 0 0.480494 -0.459059 -1.3193 15.9994
O 3.87265 13.3442 9.14452 0 0 0 -1.20319 -1.13233 1.28611 15.9994
O 4.21585 12.9234 13.3366 0 0 0 0.286285 0.128783 -0.937484 15.9994
O 3.55872 12.7109 16.0543 0 0 0 -0.684091 -1.41772 -0.499879 15.9994
O 8.01923 11.3505 10.501 0 0 0 4.86341 -0.0520535 -2.18331 15.9994
O 5.53865 11.193 9.33904 0 0 0 1.33823 -1.7946 0.761686 15.9994
O 6.00318 13.2282 11.1742 0 0 0 0.531031 0.110031 -1.22454 15.9994
H 3.06026 2.18514 11.9558 0 0 0 0.118957 -0.685382 -0.579396 1.00794
H 1.20001 7.2954 11.6672 0 0 0 0.108917 -0.423956 -0.220485 1.00794
H -3.73636 12.0034 4.74283 0 0 0 0.354083 0.840132 -0.330201 1.00794
H 11.4853 7.06232 13.848 0 0 0 -0.411502 0.0670217 0.0219541 1.00794
H -0.0042009 10.422 11.9188 0 0 0 0.793128 -0.798666 1.51275 1.00794
H 3.86854 1.89943 3.31709 0 0 0 1.49625 0.856009 -0.363622 1.00794
H 3.04132 2.98175 15.0701 0 0 0 -0.567335 0.134273 1.01212 1.00794
H 6.62197 2.05806 12.2746 0 0 0 0.289663 0.206531 0.278291 1.00794
H -0.333351 7.35199 2.78868 0 0 0 -0.303371 0.447483 0.00727621 1.00794
H 3.39775 7.55063 0.296231 0 0 0 0.137496 0.677314 0.253546 1.00794
H 7.2389 3.56254 8.40714 0 0 0 0.0405813 -0.406202 -0.160087 1.00794
H 4.17219 5.332 13.6806 0 0 0 0.603486 -0.426484 0.0570255 1.00794
H 1.49119 8.08073 13.993 0 0 0 -0.0374045 0.0330748 0.531036 1.00794