295
Timestep=0 Time=0.000000 pbc="T T T" Lattice="15.1447 0 0 -7.69741 13.0283 0 -0.636627 0.58048 16.498" Potential_energy=881.8979798276735 Temperature=0 Stress="80079.3739224728 -3911.6398442241225 1414.0066890667529 -3911.6398442241225 81917.8660684318 2294.975740875608 1414.0066890667529 2294.975740875608 78153.70901361827" Properties=species:S:1:pos:R:3:vel:R:3:forces:R:3:mass:R:1
Si -5.31503 13.0254 1.52315 0 0 0 25.6653 21.4475 27.3318 28.0855
Si 13.9531 1.4754 3.75001 0 0 0 -25.7465 26.5515 41.7106 28.0855
Si 0.374043 2.55686 16.0629 0 0 0 -7.74405 -9.86107 18.5408 28.0855
Si -4.91526 12.7451 7.32066 0 0 0 -11.4409 -25.6255 49.1514 28.0855
Si 13.3244 1.91923 9.76839 0 0 0 11.8844 5.31095 5.4121 28.0855
Si 0.9562 1.73254 5.98823 0 0 0 36.8451 51.3924 -1.70561 28.0855
Si -0.19499 3.64135 1.72947 0 0 0 -40.7039 26.8198 -1.53852 28.0855
Si -0.55546 3.89726 7.79437 0 0 0 80.969 2.56439 8.84293 28.0855
Si -3.87815 6.78995 9.32184 0 0 0 -9.73264 -36.2854 -33.561 28.0855
Si -1.80494 6.1254 5.81352 0 0 0 2.15305 9.31408 11.8555 28.0855
Si -1.62745 7.29773 11.343 0 0 0 -11.4816 -16.6896 42.4477 28.0855
Si -2.51108 8.62218 1.47479 0 0 0 -2.29808 20.2271 -16.1448 28.0855
Si -6.37508 10.8018 3.51492 0 0 0 2.70288 32.9353 53.8204 28.0855
Si -4.31709 11.7353 16.3411 0 0 0 -10.7148 -32.6341 20.2131 28.0855
Si -2.58566 8.67368 7.26378 0 0 0 -18.7854 9.92645 1.96502 28.0855
Si -3.75677 10.6874 5.16488 0 0 0 -2.56502 0.187075 27.7139 28.0855
Si -3.29957 9.4107 12.8351 0 0 0 -17.2987 -3.45425 21.4142 28.0855
Si 8.19527 10.3782 15.4325 0 0 0 -20.4483 -47.5065 60.7683 28.0855
Si 5.31491 3.37923 15.8273 0 0 0 -6.93868 -16.2896 54.2815 28.0855
Si 3.91861 2.05774 8.85349 0 0 0 1.56867 -12.9412 22.1463 28.0855
Si 7.02672 4.56719 5.39315 0 0 0 -13.2586 6.07442 -21.4835 28.0855
Si 7.10339 0.73529 12.6489 0 0 0 13.6512 -9.63249 9.98645 28.0855
Si 2.75657 2.62334 14.0297 0 0 0 7.36989 -2.49442 -3.32684 28.0855
Si 5.95648 2.85457 10.7834 0 0 0 -4.39615 -70.3468 17.6046 28.0855
Si 4.97231 5.63078 0.31754 0 0 0 -45.0209 -15.0544 46.4618 28.0855
Si 0.57938 5.92972 3.75557 0 0 0 20.3769 17.1518 -1.90775 28.0855
Si 2.10107 7.7946 15.3904 0 0 0 -3.86913 42.3638 4.23205 28.0855
Si 4.91234 4.75362 7.47436 0 0 0 43.8727 34.4715 -26.2196 28.0855
Si 2.99579 6.50716 5.69808 0 0 0 11.4045 70.7929 10.3706 28.0855
Si 3.97381 4.76589 12.275 0 0 0 59.7137 2.82982 66.0409 28.0855
Si 3.67035 7.54782 11.1713 0 0 0 -17.8101 12.2688 -7.40273 28.0855
Si 1.75657 8.14366 1.78048 0 0 0 43.595 66.2755 10.7017 28.0855
Si -1.14906 10.5601 3.56129 0 0 0 -11.1894 44.9729 -15.798 28.0855
Si -1.50883 11.15 8.8547 0 0 0 -49.6882 52.9995 -4.88252 28.0855
Si 1.31266 10.4317 5.43954 0 0 0 14.138 46.4644 -10.1122 28.0855
Si -1.87712 11.6324 14.4833 0 0 0 13.4647 11.5961 17.8136 28.0855
Si 0.76203 11.6622 10.9249 0 0 0 10.3871 -1.78403 29.0956 28.0855
Si 8.96741 2.56186 4.42978 0 0 0 -3.65931 13.5735 -3.80658 28.0855
Si 10.409 0.91055 0.76953 0 0 0 3.10384 -5.06178 4.48165 28.0855
Si 5.17281 12.8131 7.57511 0 0 0 28.5783 10.6479 14.7359 28.0855
Si 8.68243 3.54699 9.28544 0 0 0 12.5213 -47.411 -9.47504 28.0855
Si 11.8146 2.17884 5.72638 0 0 0 25.1226 58.9146 28.6487 28.0855
Si 8.14027 2.47654 14.8717 0 0 0 29.0468 -12.3691 13.6266 28.0855
Si 10.8937 2.83881 11.3032 0 0 0 10.4869 -25.3657 21.0192 28.0855
Si 10.3568 3.66554 1.92154 0 0 0 10.6894 12.4338 33.266 28.0855
Si 5.98388 7.23658 9.18108 0 0 0 -13.1363 28.2239 -16.4117 28.0855
Si 8.52009 7.08125 10.8546 0 0 0 -50.9961 -54.4027 31.7093 28.0855
Si 3.61756 9.6163 3.55234 0 0 0 6.44822 69.8946 -34.7433 28.0855
Si 3.2754 11.0449 9.33877 0 0 0 -3.23433 -12.4493 20.9863 28.0855
Si 7.21535 8.91124 12.9278 0 0 0 1.23356 -18.0382 25.6883 28.0855
Si 5.43792 11.1555 11.6427 0 0 0 37.8756 76.7822 -21.8306 28.0855
C 2.8942 1.29507 2.70686 0 0 0 -3.66923 7.53699 6.87194 12.0107
C 5.50096 12.8748 3.31834 0 0 0 -4.89098 -7.57106 -0.901639 12.0107
C -1.27493 2.32376 15.2614 0 0 0 -6.00057 0.596456 -7.04133 12.0107
C -0.6573 1.8212 11.2147 0 0 0 1.01805 1.78055 6.12663 12.0107
C 2.43195 2.71538 5.51147 0 0 0 9.42475 15.8162 5.71225 12.0107
C -1.52924 4.49227 0.7723 0 0 0 -5.92882 0.255034 -1.13671 12.0107
C 0.80967 4.7866 8.66136 0 0 0 8.16745 1.16526 3.24246 12.0107
C -3.58341 5.91845 5.3526 0 0 0 -11.3788 -2.34568 -2.56086 12.0107
C 0.10967 7.56306 10.788 0 0 0 5.13376 6.40363 3.12395 12.0107
C -3.8459 7.54616 2.17163 0 0 0 -2.36693 -5.03256 -0.696205 12.0107
C -1.38936 7.75526 0.28256 0 0 0 -2.30057 -5.25135 -6.74907 12.0107
C 7.84269 9.32031 2.91225 0 0 0 -8.50416 -7.01791 -0.289316 12.0107
C -4.15268 8.04748 13.7905 0 0 0 -9.26888 -0.65696 -5.33845 12.0107
C -4.39492 10.6467 11.9957 0 0 0 -7.73631 1.00189 -0.735222 12.0107
C 6.61053 11.2095 15.9269 0 0 0 -4.71947 4.22445 0.05264 12.0107
C 6.1173 1.9011 0.92895 0 0 0 2.19868 -6.60293 9.47725 12.0107
C 2.37504 1.92983 9.84748 0 0 0 -3.34031 -3.59153 9.33705 12.0107
C 7.38935 6.38325 5.24589 0 0 0 -1.54495 3.86499 -4.45859 12.0107
C 5.96329 3.9035 4.022 0 0 0 -7.12175 1.60315 -3.62123 12.0107
C 2.55936 0.95284 13.2859 0 0 0 -1.73816 -11.715 -3.31892 12.0107
C 3.72243 4.94179 1.50548 0 0 0 -1.96495 -2.13412 9.75289 12.0107
C 6.236 6.69748 1.16816 0 0 0 -0.0284164 1.73258 10.6223 12.0107
C 1.00246 6.69336 14.3859 0 0 0 -2.37081 -9.30637 -5.3033 12.0107
C 2.33791 7.48716 7.12439 0 0 0 -2.28346 4.73122 5.33092 12.0107
C -0.48396 11.9112 2.49765 0 0 0 6.50903 5.17109 -9.90966 12.0107
C -0.95089 12.4743 7.69213 0 0 0 0.16522 5.1538 -1.15079 12.0107
C 1.70675 12.2162 5.25397 0 0 0 2.01396 11.117 0.455914 12.0107
C -0.38489 11.5255 15.5711 0 0 0 8.35364 1.55768 5.84989 12.0107
C 1.2072 10.6382 12.4002 0 0 0 7.41166 -1.34465 8.5716 12.0107
C 3.26062 13.4195 16.3551 0 0 0 -1.10499 -10.5718 -4.98348 12.0107
C 8.99643 2.00097 8.32595 0 0 0 5.05256 -4.0142 -6.47315 12.0107
C 9.40186 3.70513 14.3187 0 0 0 4.70493 7.14315 -1.61046 12.0107
C 12.0302 3.976 12.2291 0 0 0 5.87817 4.26645 2.8959 12.0107
C 9.54475 4.88333 0.78008 0 0 0 -3.1648 6.07308 1.45179 12.0107
C 6.01015 8.68754 8.03003 0 0 0 -0.942882 9.28999 -4.53177 12.0107
C 6.64153 7.44443 13.89 0 0 0 -3.64227 -13.1413 8.24625 12.0107
C 4.57341 12.2725 12.8512 0 0 0 -1.93428 1.92642 5.49762 12.0107
O 1.45153 0.58321 0.30391 0 0 0 -38.24 -58.0912 -31.7684 15.9994
O 0.12158 1.20829 4.68433 0 0 0 39.7372 -71.5351 -31.0671 15.9994
O 1.37397 0.39296 6.85194 0 0 0 -57.0891 -26.0221 20.1981 15.9994
O -0.75713 2.25159 2.38543 0 0 0 -12.6996 -56.2829 -68.6058 15.9994
O 0.97666 3.20023 0.66505 0 0 0 33.6407 29.2693 1.57635 15.9994
O -1.62038 3.29073 8.88933 0 0 0 -56.5313 60.0672 11.9561 15.9994
O -0.04418 2.60901 6.92996 0 0 0 -45.2689 -41.1513 12.2302 15.9994
O -1.32955 4.90619 6.78176 0 0 0 -54.2651 -21.6224 5.5739 15.9994
O -2.50043 6.53699 10.1623 0 0 0 47.1296 -60.1103 -14.5159 15.9994
O -6.18716 11.837 2.24827 0 0 0 -56.2455 -15.5791 -40.5591 15.9994
O -3.25984 9.83279 0.65581 0 0 0 -29.3346 -41.3289 7.93577 15.9994
O -3.95494 12.38 0.87439 0 0 0 54.4734 36.8474 31.7766 15.9994
O -3.69602 8.0299 8.26866 0 0 0 -59.9293 36.491 5.57461 15.9994
O -1.60257 7.52908 6.649 0 0 0 66.8623 1.70029 4.86528 15.9994
O -4.90874 10.2963 4.08445 0 0 0 7.65728 -67.1536 -49.4621 15.9994
O -3.44454 9.3748 6.06709 0 0 0 -41.1304 -56.8561 -25.9174 15.9994
O -4.2585 11.9194 6.08813 0 0 0 23.1088 50.3248 -31.0183 15.9994
O -2.33686 8.73444 11.678 0 0 0 8.84768 58.2133 -55.4664 15.9994
O -5.68076 11.42 15.5027 0 0 0 -15.7559 50.1177 -58.155 15.9994
O 3.87219 0.88553 7.70647 0 0 0 49.4636 7.21244 -40.1225 15.9994
O 4.09447 2.74094 14.9507 0 0 0 16.3481 -75.6991 11.8819 15.9994
O 1.45617 3.02096 14.9386 0 0 0 -16.0479 64.8884 -26.3244 15.9994
O 5.25207 1.78103 9.76801 0 0 0 12.6802 -44.4059 0.303711 15.9994
O 6.30663 2.05676 12.1506 0 0 0 -28.7871 45.0748 68.7366 15.9994
O 5.10932 4.98711 16.0311 0 0 0 47.2469 42.6534 -38.3308 15.9994
O 0.50067 4.54274 2.90509 0 0 0 57.4682 -48.8113 29.4663 15.9994
O -0.84872 6.18937 4.48213 0 0 0 -64.3291 32.7734 -57.5491 15.9994
O 3.5775 7.1293 15.6616 0 0 0 48.347 7.42872 -48.1778 15.9994
O 4.09762 3.54434 8.18768 0 0 0 -80.7687 23.9604 18.9412 15.9994
O 6.3037 4.19876 6.8376 0 0 0 36.8947 -37.7568 22.8193 15.9994
O 1.77359 5.79604 4.85137 0 0 0 11.4633 -74.4908 33.4225 15.9994
O 3.97776 5.31883 6.26961 0 0 0 -1.822 -42.1703 -66.8426 15.9994
O 2.82162 3.75029 12.8248 0 0 0 -56.7265 -7.7359 -25.2399 15.9994
O 4.90709 4.03736 11.1529 0 0 0 -14.2362 49.6626 -72.0661 15.9994
O 3.20225 6.01 11.5423 0 0 0 -56.4661 -4.7948 -20.8835 15.9994
O 0.89252 7.15334 2.73537 0 0 0 -67.6246 43.1086 8.21408 15.9994
O 1.96475 7.46691 0.3277 0 0 0 -55.027 -63.1083 -22.5268 15.9994
O -1.63496 9.26612 2.70328 0 0 0 35.9884 -70.7677 21.9901 15.9994
O -2.4198 11.1934 4.39514 0 0 0 17.6897 73.6054 -9.08669 15.9994
O -1.63561 9.72056 8.04867 0 0 0 79.2024 -12.1041 9.13754 15.9994
O -0.04808 9.99691 4.63398 0 0 0 -13.6813 -66.0354 19.2583 15.9994
O -2.26434 10.1616 13.8988 0 0 0 32.6672 -67.8157 25.219 15.9994
O -1.63963 12.6567 13.2176 0 0 0 -65.8331 -17.3237 -48.2279 15.9994
O -3.14324 12.2359 15.3367 0 0 0 7.23559 70.2585 -17.4768 15.9994
O -0.39168 10.9231 10.0433 0 0 0 -11.8699 -81.7999 19.2545 15.9994
O 0.24098 13.1493 11.3944 0 0 0 19.4789 41.086 -49.5723 15.9994
O 8.48011 3.77604 5.40604 0 0 0 25.6583 27.3786 34.1854 15.9994
O 13.5399 0.59608 8.81844 0 0 0 78.1918 -26.2875 26.9181 15.9994
O 7.24123 3.52032 10.0808 0 0 0 2.88899 76.1032 -16.1996 15.9994
O 12.9177 2.47027 4.55848 0 0 0 8.91321 59.6689 -17.4734 15.9994
O 10.375 1.98525 4.98869 0 0 0 -4.0638 -92.0046 -5.51014 15.9994
O 12.1925 0.78065 6.47608 0 0 0 -35.5234 -38.4772 -30.888 15.9994
O 8.12001 1.20238 13.8306 0 0 0 59.484 -36.8105 7.64469 15.9994
O 8.45325 1.80395 16.3391 0 0 0 -55.4126 -9.55133 38.1767 15.9994
O 6.6907 3.20996 14.9467 0 0 0 -16.81 51.726 -69.086 15.9994
O 11.7701 1.88099 10.2812 0 0 0 -39.621 -45.703 -13.5216 15.9994
O 9.84334 3.75909 10.4422 0 0 0 10.4695 70.338 3.04485 15.9994
O 9.14707 3.10824 2.8975 0 0 0 -57.9651 5.16594 -39.4141 15.9994
O 11.0715 2.374 1.16879 0 0 0 52.7775 2.30789 -16.4254 15.9994
O 5.22405 5.94849 8.52205 0 0 0 -42.6572 -11.4199 57.4033 15.9994
O 5.20703 7.55336 10.5936 0 0 0 47.4672 30.79 49.3006 15.9994
O 10.056 7.2064 10.3361 0 0 0 41.729 51.3096 55.1104 15.9994
O 7.53303 6.86737 9.56751 0 0 0 33.6016 -40.7594 -66.1663 15.9994
O 3.23104 8.45126 2.44892 0 0 0 36.6824 -31.3187 -11.57 15.9994
O 2.59105 9.56461 4.83072 0 0 0 7.78932 -48.7168 54.2797 15.9994
O 3.96492 11.8471 8.10199 0 0 0 -40.4545 -16.4465 -65.6313 15.9994
O 2.07743 11.9552 9.97981 0 0 0 5.1009 61.2288 -12.3207 15.9994
O 8.1353 8.46957 11.6364 0 0 0 27.8496 57.9039 -28.1653 15.9994
O 8.14879 9.87128 13.8746 0 0 0 48.9111 20.0863 -34.85 15.9994
O 4.37296 10.6584 10.4832 0 0 0 11.4847 -77.874 10.6238 15.9994
O 5.95245 9.81973 12.4322 0 0 0 -76.2013 -46.5577 27.257 15.9994
H -5.19135 11.8496 8.46163 0 0 0 3.8185 0.74842 -1.30393 1.00794
H 10.9612 5.56173 8.5728 0 0 0 0.350883 1.53568 2.45594 1.00794
H -1.6654 6.43512 12.5566 0 0 0 3.99611 7.16806 -4.41085 1.00794
H 8.06333 11.5023 4.61712 0 0 0 0.243049 -4.6914 -4.14921 1.00794
H 8.48522 9.20316 16.3092 0 0 0 -3.33014 6.87551 -5.18173 1.00794
H 2.34304 9.12287 14.7596 0 0 0 -4.78769 -7.67686 -0.626149 1.00794
H 3.85455 7.2451 4.74051 0 0 0 -4.31508 -13.2096 14.2296 1.00794
H 4.81243 5.24774 13.3837 0 0 0 -12.8259 -7.8924 -1.00364 1.00794
H 3.62644 8.3536 12.4153 0 0 0 1.27265 -3.76402 -4.16343 1.00794
H 2.73892 8.04526 10.1408 0 0 0 5.39725 -0.401664 6.04783 1.00794
H 1.02706 9.41732 1.65011 0 0 0 5.43562 -6.51628 -0.34264 1.00794
H -2.81993 11.4467 9.48649 0 0 0 7.22812 2.10789 -6.61611 1.00794
H 1.14069 10.0282 6.85065 0 0 0 -1.72286 8.66168 -2.71013 1.00794
H 7.94842 1.49966 4.38973 0 0 0 -0.350827 10.4093 0.408 1.00794
H 9.92945 0.2485 2.01236 0 0 0 4.96777 2.89093 -6.64497 1.00794
H 6.20445 11.9914 6.91801 0 0 0 -0.55856 0.254658 1.40933 1.00794
H 8.70066 4.75627 8.43807 0 0 0 -0.774789 -5.71073 -2.49997 1.00794
H 11.7451 3.2827 6.68993 0 0 0 -2.66578 -1.35698 -0.068206 1.00794
H 10.1434 1.89808 12.1705 0 0 0 2.10208 7.73188 -0.926353 1.00794
H 11.4108 4.29123 2.75139 0 0 0 -7.63608 -5.50043 -14.0722 1.00794
H 8.40397 5.9413 11.7863 0 0 0 -0.174103 1.35902 -2.33684 1.00794
H 3.49477 10.9306 2.86897 0 0 0 -0.0692002 -7.33446 3.8395 1.00794
H 5.00102 9.36674 4.01936 0 0 0 -4.2127 2.57584 -0.296856 1.00794
H 2.71758 9.79715 8.79933 0 0 0 -2.8933 11.8117 5.85544 1.00794
H 6.59697 11.7967 10.9657 0 0 0 -5.39861 -0.554228 4.57206 1.00794
H 3.28197 2.17807 2.18686 0 0 0 -10.5472 -3.59624 -3.40575 1.00794
H 3.67018 0.9106 3.38313 0 0 0 5.01441 -6.2915 1.23698 1.00794
H 2.03163 1.611 3.29795 0 0 0 -3.86078 -5.49338 -14.5836 1.00794
H 5.47532 12.225 4.20338 0 0 0 0.64448 -1.97503 7.17429 1.00794
H 6.09364 12.3721 2.54091 0 0 0 4.956 -0.783092 -4.30741 1.00794
H 4.47362 12.9914 2.95186 0 0 0 -2.75453 6.78848 0.65045 1.00794
H 13.9203 1.54044 14.4928 0 0 0 4.79363 -2.53569 -1.06357 1.00794
H -1.58567 3.25901 14.7769 0 0 0 6.87936 5.40116 11.0963 1.00794
H 13.1048 2.04173 15.9943 0 0 0 0.850181 0.917503 7.64009 1.00794
H 0.14891 1.10922 11.0081 0 0 0 -2.72401 -6.35249 -4.32962 1.00794
H 13.9492 1.46639 12.1028 0 0 0 -3.8975 -1.73835 2.44204 1.00794
H -0.20943 2.79345 11.4594 0 0 0 0.0820409 8.9833 -2.28612 1.00794
H 2.22569 3.36026 4.65077 0 0 0 -3.80537 2.00732 -4.40461 1.00794
H 3.30219 2.08972 5.28557 0 0 0 4.12093 -6.23871 1.90077 1.00794
H 2.70202 3.36443 6.34672 0 0 0 -14.6021 -7.11751 -3.38549 1.00794
H -2.12864 5.17736 1.38204 0 0 0 2.55967 1.76899 7.92164 1.00794
H -2.19859 3.72682 0.35751 0 0 0 0.930669 -1.37215 -6.13507 1.00794
H -1.72946 5.63857 16.4386 0 0 0 5.50411 -3.75296 -7.15099 1.00794
H 0.56014 5.85169 8.71623 0 0 0 -5.6729 2.16815 -6.38618 1.00794
H 1.76455 4.68178 8.13304 0 0 0 0.608852 -3.15603 -6.78718 1.00794
H 0.95459 4.4173 9.684 0 0 0 -3.65688 -4.63927 5.95882 1.00794
H 11.4285 5.12116 4.61055 0 0 0 3.74383 0.542811 8.95614 1.00794
H -3.99065 6.84743 4.93322 0 0 0 0.0169397 6.23799 0.0129496 1.00794
H 10.9684 5.65658 6.2397 0 0 0 -2.14433 -0.804331 4.68673 1.00794
H 0.15581 8.07425 9.81708 0 0 0 -4.08256 2.67881 -7.1133 1.00794
H 0.65698 6.61501 10.7297 0 0 0 -1.15888 -5.18235 6.27321 1.00794
H 0.61451 8.19584 11.5281 0 0 0 -1.75314 -3.485 2.48003 1.00794
H -3.44942 6.61885 2.60278 0 0 0 7.32913 -1.02919 0.45418 1.00794
H 10.5909 7.28691 1.37438 0 0 0 1.31528 6.09266 -4.60464 1.00794
H -4.39262 8.08826 2.95481 0 0 0 -1.62282 2.97016 2.29624 1.00794
H -1.41685 9.04395 16.2085 0 0 0 0.131336 -1.32889 -0.356928 1.00794
H -2.61968 7.76458 16.0564 0 0 0 -3.70441 -0.649411 3.14261 1.00794
H -0.71852 7.06299 0.79842 0 0 0 -0.868488 -0.126102 5.55697 1.00794
H 7.62904 8.63971 3.74632 0 0 0 0.403381 4.73886 4.18551 1.00794
H 8.41573 8.76922 2.154 0 0 0 6.36205 -0.409889 -3.40271 1.00794
H 6.88308 9.61253 2.46573 0 0 0 -4.60012 6.18032 -2.09356 1.00794
H -3.42032 7.28293 14.0891 0 0 0 2.9596 -3.62282 -2.79005 1.00794
H 10.2264 7.55525 13.1774 0 0 0 -0.785842 -0.636286 -3.19251 1.00794
H -4.63899 8.43214 14.6972 0 0 0 -0.767611 5.7722 4.19243 1.00794
H -5.07479 11.1331 12.7047 0 0 0 -0.990299 1.8563 7.07856 1.00794
H -5.00384 10.1499 11.2281 0 0 0 -1.42937 -4.12806 -4.9708 1.00794
H -3.77608 11.4131 11.5083 0 0 0 2.78629 4.63047 0.91399 1.00794
H 5.76205 10.514 15.8411 0 0 0 -2.79301 -6.14495 -0.734399 1.00794
H 6.41058 12.0784 15.2866 0 0 0 3.78794 3.41837 -3.00455 1.00794
H 7.31247 10.9863 0.46483 0 0 0 0.609081 0.297634 4.69408 1.00794
H 7.03998 2.18609 1.45103 0 0 0 5.80085 4.58503 0.898003 1.00794
H 6.15735 0.82507 0.72509 0 0 0 -1.70318 7.35697 -11.6398 1.00794
H 5.26771 2.0766 1.59724 0 0 0 4.93163 4.37797 -3.13237 1.00794
H 2.35203 0.93087 10.3082 0 0 0 2.31627 -5.02978 0.634487 1.00794
H 1.48956 2.01873 9.2066 0 0 0 -1.77991 1.66798 -6.06806 1.00794
H 2.31385 2.67314 10.6501 0 0 0 4.03323 5.92405 -0.586811 1.00794
H 6.46841 6.98297 5.2029 0 0 0 -8.01712 -1.19315 1.03662 1.00794
H 7.95226 6.5603 4.31779 0 0 0 3.97502 -5.84016 -4.24966 1.00794
H 8.00908 6.73296 6.08468 0 0 0 2.84326 -1.69026 6.70276 1.00794
H 5.80003 2.8229 4.14536 0 0 0 -0.151744 -5.80308 3.57571 1.00794
H 6.41555 4.06579 3.03509 0 0 0 6.59474 3.68053 -3.15796 1.00794
H 4.98187 4.39196 4.0464 0 0 0 -2.80758 5.40415 5.34938 1.00794
H -5.34431 13.223 14.0493 0 0 0 -2.04912 7.36219 0.543847 1.00794
H 3.46482 0.65012 12.7442 0 0 0 7.445 2.59447 -3.53532 1.00794
H 1.71548 0.96062 12.5838 0 0 0 -2.53514 0.678214 0.933305 1.00794
H 4.15184 4.10272 2.06542 0 0 0 3.22275 2.90989 -6.2498 1.00794
H 2.82096 4.57959 0.99567 0 0 0 4.32357 4.75377 -7.18734 1.00794
H 3.42528 5.70127 2.24149 0 0 0 1.49512 4.61306 1.76737 1.00794
H 7.00165 7.06756 0.47334 0 0 0 2.29298 0.554 -7.92692 1.00794
H 6.74448 6.14226 1.96917 0 0 0 0.727923 -5.2902 2.70704 1.00794
H 5.73619 7.56044 1.62961 0 0 0 -4.64675 4.37182 0.870897 1.00794
H 0.87352 5.72576 14.8934 0 0 0 0.347798 -3.37986 5.11884 1.00794
H 1.41045 6.49143 13.3872 0 0 0 5.57157 2.99765 -3.94495 1.00794
H 0.01083 7.15491 14.2706 0 0 0 -4.48592 4.97088 0.850863 1.00794
H 2.88825 8.42959 7.22182 0 0 0 6.26287 -3.86097 -7.27335 1.00794
H 2.45847 6.92749 8.05931 0 0 0 4.54591 -2.38969 3.15906 1.00794
H 1.27468 7.73465 7.00483 0 0 0 -6.97312 -4.95099 -4.79668 1.00794
H -1.19112 12.1137 1.68374 0 0 0 -2.30903 -15.0836 3.25567 1.00794
H 0.48545 11.6544 2.0539 0 0 0 5.62153 -5.90011 0.407653 1.00794
H -0.36378 12.8413 3.06876 0 0 0 -0.960358 0.890523 4.85566 1.00794
H -1.50147 12.4476 6.74231 0 0 0 -4.48838 -3.69269 -4.37239 1.00794
H 0.121 12.3595 7.49069 0 0 0 2.99276 -3.18467 6.85358 1.00794
H 6.58456 0.42807 8.15127 0 0 0 -0.767591 2.20622 3.4505 1.00794
H 2.00517 12.4607 4.22567 0 0 0 0.95687 -4.35732 -6.40412 1.00794
H 2.53591 12.4845 5.91919 0 0 0 -0.00891464 -5.32457 3.10757 1.00794
H 0.85066 12.8457 5.51641 0 0 0 -5.01184 -7.16563 2.64987 1.00794
H -0.04365 12.5316 15.8455 0 0 0 -1.44845 2.36506 0.51899 1.00794
H 0.44361 10.9974 15.0822 0 0 0 1.44957 -2.95874 -2.96074 1.00794
H -0.62559 10.9893 16.4965 0 0 0 -4.15678 5.22287 1.05979 1.00794
H 1.92559 9.84709 12.1499 0 0 0 2.88099 2.34639 -5.36875 1.00794
H 0.31408 10.1674 12.832 0 0 0 -6.43633 -1.19946 -0.268312 1.00794
H 1.67635 11.2706 13.1662 0 0 0 1.01328 5.86642 1.16268 1.00794
H 11.1953 0.77854 15.3548 0 0 0 -1.97529 6.84176 -5.29169 1.00794
H 2.77966 12.4374 16.2233 0 0 0 -2.37389 -4.73631 -0.491357 1.00794
H 4.83609 12.6807 0.40328 0 0 0 3.61162 1.87388 7.41921 1.00794
H 8.99898 1.10903 8.96433 0 0 0 -2.92763 -0.274012 6.6328 1.00794
H 9.98769 2.07701 7.86081 0 0 0 0.288228 0.361248 3.05981 1.00794
H 8.24936 1.87988 7.53275 0 0 0 -5.1057 3.00711 -4.65313 1.00794
H 9.15189 4.03492 13.2999 0 0 0 -5.74698 2.61547 -2.18899 1.00794
H 10.4096 3.2727 14.3052 0 0 0 3.42051 -8.00689 6.65772 1.00794
H 9.41732 4.59368 14.957 0 0 0 0.0623984 -3.70515 -7.91084 1.00794
H -2.39732 4.42229 11.5285 0 0 0 2.96327 -3.50082 -3.97264 1.00794
H 12.5927 3.43818 13.0026 0 0 0 -5.83498 -4.97521 -10.6402 1.00794
H 11.4833 4.79778 12.7079 0 0 0 -7.21677 4.40045 1.48711 1.00794
H 9.10908 5.68048 1.39918 0 0 0 -5.23471 0.482373 3.40917 1.00794
H 8.72255 4.428 0.2115 0 0 0 -5.21395 -5.37366 1.51224 1.00794
H 10.2501 5.35142 0.08053 0 0 0 9.75428 3.02 2.51785 1.00794
H 5.00832 8.98473 7.69431 0 0 0 -5.24565 -2.52188 1.32325 1.00794
H 6.61391 8.45777 7.141 0 0 0 2.78256 -2.83117 -3.15121 1.00794
H 6.47302 9.54957 8.53155 0 0 0 2.50328 4.03154 5.27938 1.00794
H 7.45193 7.05687 14.5249 0 0 0 6.64907 0.268135 2.79404 1.00794
H 6.31823 6.6247 13.2376 0 0 0 9.11696 7.39092 -10.0559 1.00794
H 5.78839 7.70185 14.5323 0 0 0 -1.16618 7.92799 0.901274 1.00794
H 3.96451 13.0309 12.34 0 0 0 -1.51907 0.917321 -5.95427 1.00794
H 5.29913 12.7854 13.4971 0 0 0 3.39585 -0.432195 -2.74961 1.00794
H 3.91756 11.6772 13.5023 0 0 0 -2.16781 -4.66499 2.1634 1.00794
295
Timestep=100 Time=100.000000 pbc="T T T" Lattice="15.1447 0 0 -7.69741 13.0283 0 -0.636627 0.58048 16.498" Potential_energy=-67.18835552789471 Temperature=0 Stress="2376.573874049123 410.07428327158823 -1926.2952078568014 410.07428327158823 5647.925598959325 2810.7202991324443 -1926.2952078568014 2810.7202991324443 10699.093193239529" Properties=species:S:1:pos:R:3:vel:R:3:forces:R:3:mass:R:1
Si -4.82231 12.9774 1.72494 0 0 0 1.40037 -0.396463 -1.62013 28.0855
Si -0.846902 1.41473 3.71009 0 0 0 1.16624 -0.417069 0.243211 28.0855
Si 1.01729 2.64299 16.2271 0 0 0 -1.59968 1.62609 -0.916087 28.0855
Si -4.93455 12.9851 7.38436 0 0 0 -1.40563 2.0684 2.25832 28.0855
Si 13.3664 1.87239 9.43612 0 0 0 0.183332 0.918017 -0.0731466 28.0855
Si 0.798371 1.88365 6.1114 0 0 0 -1.90596 2.04522 -0.594753 28.0855
Si 0.464061 3.62939 2.00054 0 0 0 0.674531 1.49511 0.874086 28.0855
Si -0.729689 4.1164 7.71735 0 0 0 0.172083 2.59854 0.848918 28.0855
Si -3.92783 7.25534 9.1713 0 0 0 -2.15519 -1.55203 3.24688 28.0855
Si -1.91042 6.2443 5.78076 0 0 0 -2.83182 3.75966 3.13563 28.0855
Si -2.18497 7.06054 11.6261 0 0 0 1.19681 1.16398 -1.51747 28.0855
Si -2.61609 8.64029 1.34648 0 0 0 -0.701441 -0.0741539 0.488268 28.0855
Si -6.29811 11.0152 3.47795 0 0 0 -0.94261 0.341044 -1.41318 28.0855
Si -4.77165 11.4012 16.4364 0 0 0 -0.615099 -1.03568 0.267254 28.0855
Si -2.4409 8.94383 7.06911 0 0 0 -2.36509 -1.17119 4.29227 28.0855
Si -3.93122 10.9148 5.33406 0 0 0 -5.60418 2.77217 0.092146 28.0855
Si -3.27621 9.38382 13.0962 0 0 0 0.560495 -1.53946 -0.946094 28.0855
Si 7.76645 10.2338 15.3352 0 0 0 -0.192936 0.36475 -0.314609 28.0855
Si 5.01152 3.41558 15.4718 0 0 0 0.199478 0.737346 0.0380606 28.0855
Si 4.31657 2.14299 8.73167 0 0 0 -0.154365 -1.06574 -1.1528 28.0855
Si 7.21192 4.35101 5.7085 0 0 0 -0.382229 0.00464919 0.916821 28.0855
Si 6.5841 0.735625 12.6268 0 0 0 -0.889091 0.227193 1.17725 28.0855
Si 2.74355 2.53573 13.793 0 0 0 -2.34325 -1.06376 -1.54918 28.0855
Si 6.2029 3.10567 10.8993 0 0 0 0.269189 1.98089 -0.463797 28.0855
Si 4.96507 5.60754 0.0731179 0 0 0 -0.715278 0.892701 0.991882 28.0855
Si 0.631248 5.85568 4.15958 0 0 0 -3.89626 0.98355 1.35467 28.0855
Si 1.89075 7.82453 15.9184 0 0 0 0.586982 0.920088 -0.756223 28.0855
Si 4.89608 4.85373 7.53213 0 0 0 0.182309 -0.344697 -0.132629 28.0855
Si 2.87811 6.59902 5.99737 0 0 0 0.927238 -1.08347 0.33491 28.0855
Si 4.03243 4.85924 12.1155 0 0 0 -0.509222 0.224241 -1.91246 28.0855
Si 3.49909 7.64154 11.2231 0 0 0 0.352303 -1.00554 -0.777862 28.0855
Si 1.82593 7.93021 2.19392 0 0 0 2.03842 -0.946146 1.66747 28.0855
Si -1.46984 10.6053 3.5902 0 0 0 -1.49123 1.04326 1.19703 28.0855
Si -1.24027 11.2098 8.69741 0 0 0 -0.739959 -0.762457 -0.515218 28.0855
Si 1.14127 10.4037 5.14735 0 0 0 0.707924 -1.03518 1.17446 28.0855
Si -2.39999 11.8095 14.5955 0 0 0 -0.583262 -0.955283 2.38234 28.0855
Si 0.516678 11.6697 11.0929 0 0 0 1.0491 -0.392229 -1.6376 28.0855
Si 9.06787 2.53283 4.29752 0 0 0 0.92858 1.72277 -0.438371 28.0855
Si 10.1204 1.04241 0.55393 0 0 0 -2.55166 -0.60087 0.207202 28.0855
Si 4.86967 12.79 7.45208 0 0 0 -0.947547 0.247272 0.506434 28.0855
Si 9.00855 3.70036 9.83403 0 0 0 -0.59285 0.746256 -1.27346 28.0855
Si 11.8816 1.86847 5.31332 0 0 0 -0.884545 -0.739075 0.744023 28.0855
Si 7.82351 2.63837 14.7048 0 0 0 -0.439467 -0.724032 -1.87056 28.0855
Si 11.2756 2.63719 11.3773 0 0 0 -1.26095 1.43457 -0.862016 28.0855
Si 10.3575 3.69972 1.9226 0 0 0 2.0214 0.415888 1.15193 28.0855
Si 5.76939 7.22703 9.26553 0 0 0 -1.64927 -1.23558 0.161796 28.0855
Si 8.54442 7.79581 10.3206 0 0 0 -0.551379 0.0837979 -0.159923 28.0855
Si 3.59112 9.8413 3.45835 0 0 0 -0.340299 -0.788612 1.4585 28.0855
Si 3.03726 11.507 9.44544 0 0 0 0.454188 -0.701907 -1.14434 28.0855
Si 7.16173 9.18429 12.5906 0 0 0 0.0140087 1.46991 0.585155 28.0855
Si 5.2352 11.2431 11.603 0 0 0 -0.639283 -0.249223 -0.0132186 28.0855
C 3.75589 0.914589 3.01592 0 0 0 0.120021 1.07106 0.63812 12.0107
C 5.69485 13.1006 2.75918 0 0 0 0.329149 -0.184701 0.852473 12.0107
C -0.648621 1.82971 15.9511 0 0 0 -0.103972 -0.214996 0.311924 12.0107
C -0.426061 1.8253 10.6911 0 0 0 -0.184888 -0.838978 0.562163 12.0107
C 2.29933 2.67626 5.35714 0 0 0 0.104422 0.686278 -0.526261 12.0107
C -1.117 4.27554 1.2603 0 0 0 -0.744083 -0.41031 0.675059 12.0107
C 0.837039 4.56503 8.59961 0 0 0 2.22363 -1.16632 -0.527592 12.0107
C -3.73072 5.89963 5.47042 0 0 0 0.0369306 -1.27854 -0.0705685 12.0107
C -0.576567 6.70122 10.7888 0 0 0 -0.896046 0.267133 0.88775 12.0107
C -3.43132 7.09759 1.89451 0 0 0 -0.004819 0.63493 0.851759 12.0107
C -1.08901 7.95563 0.581148 0 0 0 -0.00652342 0.427845 -0.029807 12.0107
C 7.86522 9.59962 2.78767 0 0 0 -0.442564 -0.762754 -1.08812 12.0107
C -4.2774 8.07201 13.9843 0 0 0 -0.710644 -0.147056 -1.64607 12.0107
C -4.34652 10.5807 12.1481 0 0 0 0.317376 -1.07219 0.193338 12.0107
C 5.95498 10.608 15.634 0 0 0 -0.298918 -0.0412587 0.118603 12.0107
C 5.96651 2.25199 0.694233 0 0 0 0.836726 0.561976 2.79416 12.0107
C 3.11581 1.8029 10.0953 0 0 0 -0.288509 0.638166 0.911724 12.0107
C 7.57213 6.13616 5.28897 0 0 0 -0.282785 -0.444571 -1.10437 12.0107
C 6.0081 3.61595 4.46722 0 0 0 0.0907102 -0.0759411 0.731055 12.0107
C 2.02322 0.888094 13.2989 0 0 0 0.122851 1.47637 -1.66164 12.0107
C 4.29871 5.19814 1.7528 0 0 0 -0.887169 -0.876402 0.230031 12.0107
C 6.75649 5.99693 0.353593 0 0 0 -0.230565 -1.62956 -0.206076 12.0107
C 1.11401 6.81878 14.5603 0 0 0 -0.553896 -0.694629 0.146623 12.0107
C 2.46085 7.69036 7.4364 0 0 0 -0.582069 -0.0554856 -0.181227 12.0107
C -0.820384 11.935 2.46888 0 0 0 0.502475 0.807989 0.180906 12.0107
C -0.534223 12.7647 7.99152 0 0 0 0.743434 -0.826656 -0.0255268 12.0107
C 1.29365 12.2172 5.00126 0 0 0 -1.1825 0.112083 0.00362995 12.0107
C -0.968349 12.1547 15.7209 0 0 0 1.21551 -0.328599 0.0530932 12.0107
C 0.757961 10.7108 12.6816 0 0 0 -0.278244 -0.897884 0.340344 12.0107
C 10.5436 0.637163 15.8573 0 0 0 -0.000586951 -0.314223 -0.516381 12.0107
C 9.14371 2.34608 8.57986 0 0 0 0.447286 -1.33284 -0.556318 12.0107
C 9.19651 3.73149 14.0805 0 0 0 0.607424 -1.42583 0.314164 12.0107
C 12.5401 3.32511 12.5731 0 0 0 -0.015792 -0.125477 -0.0607435 12.0107
C 9.83159 4.76414 0.510945 0 0 0 0.954065 0.211503 0.182456 12.0107
C 5.76108 8.546 7.95798 0 0 0 0.800935 1.24495 -0.954749 12.0107
C 7.00439 7.44068 13.2737 0 0 0 0.325031 -0.111245 0.597746 12.0107
C 4.23098 12.2476 12.8073 0 0 0 -0.0979996 0.620657 0.120613 12.0107
O 2.76202 0.877096 0.279211 0 0 0 0.0697413 -0.34085 0.230458 15.9994
O 0.0548653 0.80226 5.02105 0 0 0 0.167141 0.380421 1.25837 15.9994
O 1.38225 1.01411 7.46674 0 0 0 2.39327 -2.92561 0.287326 15.9994
O 0.288429 2.08196 2.65328 0 0 0 0.843741 -1.14485 0.809056 15.9994
O 1.57193 3.4167 0.746697 0 0 0 0.00871184 -1.06475 0.611506 15.9994
O -1.90604 3.39963 8.71202 0 0 0 2.28307 -0.256084 0.11084 15.9994
O -0.38378 3.11798 6.38187 0 0 0 0.876327 -1.96556 -1.5729 15.9994
O -1.35446 5.64775 7.2783 0 0 0 -1.10954 -2.54785 -1.3609 15.9994
O -3.52738 6.59907 10.6924 0 0 0 -0.550707 1.916 -1.13774 15.9994
O -6.26551 12.328 2.34992 0 0 0 0.914393 -1.6908 0.487017 15.9994
O -4.25756 9.80809 16.6129 0 0 0 -1.42088 0.685627 1.09625 15.9994
O -3.8644 11.6503 1.37198 0 0 0 1.13901 -0.591234 -0.0464198 15.9994
O -2.59946 8.11481 8.55681 0 0 0 1.77278 3.49208 -2.74258 15.9994
O -1.77087 7.94441 5.84167 0 0 0 0.943438 -1.62921 -1.58824 15.9994
O -4.76624 10.4014 3.93669 0 0 0 0.93461 -2.08241 -0.975041 15.9994
O -3.89799 9.67656 6.52921 0 0 0 0.959084 -1.12418 0.89092 15.9994
O -4.85405 12.2551 5.86532 0 0 0 1.93981 -2.03294 -0.817338 15.9994
O -2.21748 8.71196 11.9645 0 0 0 -0.248583 -0.341698 1.20147 15.9994
O -6.44823 11.453 16.0876 0 0 0 -0.687021 -0.388371 -0.843449 15.9994
O 4.22383 0.807457 7.67917 0 0 0 -0.102556 -1.4131 -0.0670112 15.9994
O 4.12366 2.20358 14.7068 0 0 0 1.02784 1.84933 -0.243414 15.9994
O 1.56681 3.28792 14.748 0 0 0 0.30394 -0.825774 0.457062 15.9994
O 5.87219 2.35328 9.39855 0 0 0 -0.009775 -0.992987 -0.0445128 15.9994
O 5.7253 2.10989 12.1703 0 0 0 -1.43733 -1.21518 0.52047 15.9994
O 4.08859 4.85929 15.5249 0 0 0 0.170074 0.953403 -0.4779 15.9994
O 1.24528 4.69491 3.08701 0 0 0 1.39063 -2.61264 -3.00415 15.9994
O -1.02241 5.5766 4.48243 0 0 0 2.235 -2.2736 -4.87555 15.9994
O 3.57484 7.59211 15.9663 0 0 0 1.00461 -0.797506 -0.0366159 15.9994
O 3.88774 3.51833 7.83904 0 0 0 -0.0164513 2.63742 -0.887447 15.9994
O 6.4949 4.3098 7.25541 0 0 0 0.611332 1.60104 -0.663935 15.9994
O 1.48406 5.7104 5.62421 0 0 0 1.03381 -0.564987 0.419035 15.9994
O 4.31351 5.68878 6.16918 0 0 0 -1.18045 1.44006 -1.2915 15.9994
O 3.093 3.44706 12.3805 0 0 0 0.751036 0.51882 2.06953 15.9994
O 5.35824 4.56883 11.0712 0 0 0 0.0248777 -1.26563 -1.71051 15.9994
O 3.04809 6.00686 11.3443 0 0 0 0.807659 -0.0252366 0.349807 15.9994
O 0.828322 7.41782 3.49908 0 0 0 1.34127 1.85738 -0.714989 15.9994
O 1.82461 6.83141 0.906054 0 0 0 -1.08119 -0.860247 0.766198 15.9994
O -2.57927 9.5754 2.78425 0 0 0 -0.475035 0.156788 -1.30549 15.9994
O -2.33583 11.3644 4.87657 0 0 0 3.98388 0.288726 -1.93627 15.9994
O -1.30509 10.162 7.3606 0 0 0 1.30813 -0.566355 0.064607 15.9994
O -0.106409 9.74644 4.16813 0 0 0 1.13723 -1.67063 0.53787 15.9994
O -2.34384 10.1515 14.2795 0 0 0 -2.06304 -0.439344 0.523948 15.9994
O -2.27347 12.6488 13.1401 0 0 0 1.16035 -1.05521 -1.78772 15.9994
O -3.92159 12.2188 15.2225 0 0 0 0.364312 -0.917208 -0.937344 15.9994
O -0.179564 10.6405 9.91181 0 0 0 -1.62202 9.17505e-05 -2.09269 15.9994
O -0.399607 13.099 11.2404 0 0 0 -0.211791 0.29588 -0.595117 15.9994
O 8.68394 3.47445 5.66616 0 0 0 -0.43084 1.1185 -0.446939 15.9994
O 13.724 0.664055 8.29697 0 0 0 -0.320407 0.463349 -0.0477261 15.9994
O 7.87389 3.36256 11.0592 0 0 0 2.0334 -0.219326 0.11241 15.9994
O 13.1144 2.4866 4.29853 0 0 0 -0.241489 1.18426 1.51239 15.9994
O 10.493 1.60938 4.37738 0 0 0 1.7616 -0.554642 1.42244 15.9994
O 12.3547 0.3206 5.86216 0 0 0 0.457157 2.13279 -1.33918 15.9994
O 7.74455 1.16611 13.8099 0 0 0 0.398522 0.0409102 0.652969 15.9994
O 8.08043 2.27814 16.3474 0 0 0 0.211209 0.32997 0.583834 15.9994
O 6.44164 3.63259 14.5827 0 0 0 -0.0133876 -0.368892 -0.249995 15.9994
O 11.9367 1.53304 10.2727 0 0 0 0.263119 0.109645 -1.05267 15.9994