310
Timestep=0 Time=0.000000 pbc="T T T" Lattice="15.4114 0 0 -7.20268 12.4027 0 -1.82607 0.338403 17.5034" Potential_energy=592.2580734384717 Temperature=0 Stress="56618.89360119595 -4778.570623247116 -2631.950772479985 -4778.570623247116 61733.60572615251 -3429.720447242074 -2631.950772479985 -3429.720447242074 58959.824924086395" Properties=species:S:1:pos:R:3:vel:R:3:forces:R:3:mass:R:1
Si 3.05314 0.65122 0.65841 0 0 0 68.9511 34.3726 -48.3387 28.0855
Si -1.41784 2.21359 3.55239 0 0 0 2.13104 -36.86 -0.344724 28.0855
Si -4.93403 12.2902 8.85795 0 0 0 68.7186 4.58309 32.0023 28.0855
Si 11.0483 1.69543 17.1105 0 0 0 -4.06152 18.2448 -3.49864 28.0855
Si 0.25128 3.07597 12.0968 0 0 0 -29.1185 -31.2554 9.01079 28.0855
Si 11.1272 6.0769 3.91799 0 0 0 0.358525 -8.29602 22.8872 28.0855
Si -2.91266 4.88185 15.6333 0 0 0 29.8786 -17.309 -33.25 28.0855
Si -0.85731 4.68112 8.21471 0 0 0 27.2058 8.85753 4.38371 28.0855
Si -4.07226 6.68402 10.7688 0 0 0 56.6183 39.3291 13.7513 28.0855
Si -2.29542 6.53086 6.17317 0 0 0 41.0612 7.04005 8.621 28.0855
Si 9.57696 6.13954 15.683 0 0 0 11.7879 -17.9017 -66.4214 28.0855
Si -2.82173 8.04497 2.03467 0 0 0 72.1345 -11.5149 19.0206 28.0855
Si -6.3061 10.4933 3.55554 0 0 0 -53.5841 24.6521 -29.0961 28.0855
Si -5.87172 10.3646 17.2791 0 0 0 41.1421 19.3114 -70.8854 28.0855
Si -3.74703 8.37543 8.16101 0 0 0 30.2044 33.3669 44.648 28.0855
Si -6.21511 10.6125 11.0897 0 0 0 65.447 -7.61103 29.6581 28.0855
Si -5.20761 12.1252 13.606 0 0 0 13.4008 -17.1205 26.6546 28.0855
Si -0.47603 11.8461 1.43707 0 0 0 8.26511 -57.9953 15.9057 28.0855
Si 3.63439 2.11275 3.26775 0 0 0 44.1202 7.19116 2.08738 28.0855
Si 5.01674 2.53571 17.4007 0 0 0 12.1409 -41.1295 -17.3489 28.0855
Si 0.67799 12.0523 8.8858 0 0 0 -31.5593 22.3407 -9.14538 28.0855
Si 2.70313 2.5465 10.2458 0 0 0 14.0173 -46.6157 14.3168 28.0855
Si 7.03757 0.32569 13.4332 0 0 0 35.3598 -6.34078 -29.897 28.0855
Si 5.28589 2.21626 11.7415 0 0 0 17.1129 5.43097 -41.2955 28.0855
Si 5.20216 4.31675 1.61422 0 0 0 -3.15009 -12.2344 7.21591 28.0855
Si 0.5613 6.96031 4.99336 0 0 0 51.0872 -81.7495 -2.12957 28.0855
Si 2.35598 6.10548 16.7035 0 0 0 -1.39081 -61.2889 -28.4306 28.0855
Si 4.05367 4.79785 8.31646 0 0 0 1.8927 25.9505 -20.4767 28.0855
Si 4.10497 4.63408 13.2637 0 0 0 -68.7101 -25.3965 52.9442 28.0855
Si 2.63406 7.27229 12.3271 0 0 0 -13.1779 15.2262 43.2178 28.0855
Si 1.5627 8.01261 2.29615 0 0 0 60.0011 -27.1914 -7.12168 28.0855
Si -1.15367 9.91864 17.2848 0 0 0 52.226 15.0081 2.75678 28.0855
Si 1.41758 10.9245 6.06529 0 0 0 -5.89949 16.1605 -38.0167 28.0855
Si 10.6612 0.75634 1.52682 0 0 0 -61.8759 -14.9066 4.25069 28.0855
Si 13.0307 0.35571 7.61965 0 0 0 0.656605 -42.4527 -4.61028 28.0855
Si 11.741 2.22449 5.53469 0 0 0 -16.2178 -97.9584 -11.6982 28.0855
Si 12.2662 0.25216 12.8354 0 0 0 -6.19483 -26.3256 17.0747 28.0855
Si 9.88724 3.63354 2.3882 0 0 0 -49.5233 16.1101 13.6961 28.0855
Si 6.1414 6.30911 3.75347 0 0 0 -3.89823 11.7649 -16.3341 28.0855
Si 9.17213 5.75627 0.28854 0 0 0 -12.5155 34.0033 -27.5779 28.0855
Si 9.6327 3.65169 7.15976 0 0 0 13.3483 -45.2167 -12.3357 28.0855
Si 8.56157 6.25571 5.80032 0 0 0 -6.36547 -23.3448 -26.5145 28.0855
Si 8.78003 3.69033 13.9146 0 0 0 36.4422 -29.9301 -19.2625 28.0855
Si 5.16935 6.4259 15.4845 0 0 0 -11.7801 39.945 -33.8375 28.0855
Si 8.26458 6.47121 10.8902 0 0 0 2.01447 23.2159 -33.179 28.0855
Si 7.88155 8.11653 1.92613 0 0 0 -20.6893 -20.6659 -23.0105 28.0855
Si 5.0695 10.2212 16.9013 0 0 0 30.7222 23.3013 -36.3531 28.0855
Si 7.29486 8.44663 7.54717 0 0 0 -13.5391 -9.17495 6.53954 28.0855
Si 4.17969 10.433 8.88012 0 0 0 11.8951 -9.98102 38.6627 28.0855
Si 6.74554 10.6736 5.56984 0 0 0 -36.2185 -0.0137083 -14.1221 28.0855
Si 6.0759 10.2391 11.2107 0 0 0 -37.2445 -0.153774 42.9982 28.0855
H 4.44225 0.87088 0.20486 0 0 0 -23.5822 -5.11857 7.20896 1.00794
H -0.31922 1.59526 4.34182 0 0 0 -7.24374 4.64564 -2.04967 1.00794
H 13.2893 1.14157 2.79677 0 0 0 7.59817 15.9564 2.30634 1.00794
H -3.55453 11.9552 9.30038 0 0 0 -5.06159 0.586679 -5.83254 1.00794
H 11.0778 1.13048 15.738 0 0 0 -1.04187 4.88225 8.86062 1.00794
H 14.2509 1.38166 0.16341 0 0 0 -22.5713 -1.07652 -0.0603969 1.00794
H -0.27167 1.70051 11.9114 0 0 0 4.09059 5.91782 -2.9884 1.00794
H -0.74153 4.06779 11.5993 0 0 0 4.05217 -5.33569 2.36622 1.00794
H 0.50421 3.34104 13.5438 0 0 0 -1.76695 -1.96544 -7.28265 1.00794
H -1.94562 5.26147 16.7041 0 0 0 -3.92721 -2.21032 -6.83787 1.00794
H -1.5677 3.85453 9.22573 0 0 0 6.35575 2.23915 -3.91804 1.00794
H -3.47708 7.76459 11.6114 0 0 0 -3.05626 -5.76369 -4.83448 1.00794
H -2.96356 3.38494 15.5771 0 0 0 9.44586 20.927 -10.7348 1.00794
H -2.00893 8.95005 2.88815 0 0 0 0.92475 -7.1442 -3.28951 1.00794
H -7.05849 9.81399 16.5764 0 0 0 5.59414 0.614615 2.21231 1.00794
H -4.72905 10.5753 16.3526 0 0 0 -6.94122 -0.174667 4.50232 1.00794
H -4.91364 9.22909 7.85728 0 0 0 5.16989 -0.5556 5.32497 1.00794
H -6.10194 11.7787 14.749 0 0 0 6.18396 2.76195 -9.45559 1.00794
H 2.22005 1.19464 13.6339 0 0 0 2.82413 -8.31108 2.19041 1.00794
H -1.82716 11.5363 1.96586 0 0 0 6.59711 -0.0198271 -0.269853 1.00794
H 0.56613 11.5505 2.45871 0 0 0 -5.35471 0.4007 -4.47453 1.00794
H 6.42922 2.86574 17.1245 0 0 0 -5.92508 -1.6703 -3.33034 1.00794
H -0.34479 11.2787 13.1307 0 0 0 2.16341 7.43274 3.58544 1.00794
H 8.20289 0.84388 12.6581 0 0 0 -5.82979 -3.28856 6.713 1.00794
H 6.34423 2.25223 10.7172 0 0 0 -3.74115 -0.932211 2.58693 1.00794
H 0.64984 5.5501 4.52002 0 0 0 0.153651 10.2679 4.69824 1.00794
H 1.63838 7.26024 5.97205 0 0 0 -2.01255 -2.22913 -5.60514 1.00794
H 2.13099 4.80704 16.0014 0 0 0 -2.21319 7.8217 3.44804 1.00794
H 4.65845 5.87248 9.14929 0 0 0 -2.43278 -3.92387 -5.7422 1.00794
H 2.97695 5.40333 7.47581 0 0 0 7.27317 -3.88351 2.78959 1.00794
H 2.96213 3.83354 13.7407 0 0 0 1.6362 2.46207 -1.76377 1.00794
H 3.15669 8.25689 13.3257 0 0 0 -4.00416 -4.78794 -7.01554 1.00794
H 1.92941 6.61067 1.95046 0 0 0 2.13664 7.68227 0.0852868 1.00794
H 0.25903 10.3371 17.075 0 0 0 -7.38294 -2.31469 -0.861541 1.00794
H 2.0069 12.0979 5.34702 0 0 0 -5.25938 -6.96635 4.96222 1.00794
H 2.29315 9.74378 5.80675 0 0 0 -6.09016 6.11015 -1.74693 1.00794
H 9.39905 0.5083 0.78594 0 0 0 9.58197 3.15688 2.72688 1.00794
H 3.52661 12.3038 2.73467 0 0 0 -4.52152 6.43525 -5.04955 1.00794
H 11.094 1.11907 4.79477 0 0 0 1.30615 3.3751 4.01435 1.00794
H 10.4747 3.06468 17.0833 0 0 0 0.588677 -6.28267 1.08534 1.00794
H 8.63995 2.54442 7.22395 0 0 0 8.16367 3.90121 2.7255 1.00794
H -3.20603 5.47771 10.8168 0 0 0 -1.95607 5.42361 -0.84337 1.00794
H 9.50277 2.61714 14.6514 0 0 0 -4.84549 6.82391 -4.71067 1.00794
H 9.49317 3.95444 12.6363 0 0 0 -2.87643 -0.468708 6.64643 1.00794
H 5.68224 7.58403 14.7357 0 0 0 2.4364 -3.81342 -0.752719 1.00794
H 7.38866 3.25825 13.6346 0 0 0 8.71298 5.12507 1.76139 1.00794
H 8.23009 7.55458 9.87297 0 0 0 2.93637 -12.6709 22.6088 1.00794
H 5.53731 11.6038 17.2007 0 0 0 -4.46625 -9.22211 -3.38654 1.00794
H 5.84187 9.72928 15.7219 0 0 0 -5.73857 3.25805 6.67006 1.00794
H 8.04443 9.31476 8.47362 0 0 0 -6.32158 0.977284 -2.75575 1.00794
H 6.34737 7.50059 8.19059 0 0 0 6.43342 2.83461 0.94846 1.00794
H -5.27136 9.49682 11.3217 0 0 0 -0.471593 6.55279 -0.375006 1.00794
H 3.72818 9.33948 7.99426 0 0 0 -0.954147 3.9032 0.166222 1.00794
H 3.17134 10.8428 9.88627 0 0 0 7.25712 -2.92939 -4.91959 1.00794
H 5.49082 9.31826 12.2066 0 0 0 -2.76514 4.4049 -2.1629 1.00794
H -1.60322 3.88584 1.75838 0 0 0 -6.8586 -2.35597 -2.35155 1.00794
H -0.00537 3.10043 1.72652 0 0 0 4.06065 -5.19732 -1.94672 1.00794
H -0.35829 4.36018 2.93585 0 0 0 0.0367412 -0.230641 4.22318 1.00794
H 1.06368 0.13446 6.72127 0 0 0 -4.29003 4.83942 2.80511 1.00794
H -4.98228 11.1973 6.65726 0 0 0 1.86499 -6.57457 5.04541 1.00794
H 2.8134 0.47516 6.56571 0 0 0 4.19371 3.25208 -0.468188 1.00794
H -2.40598 6.63259 13.9409 0 0 0 -2.25936 6.24929 3.62739 1.00794
H -3.04766 5.15296 13.1799 0 0 0 -5.91185 -4.36278 1.4258 1.00794
H -1.3665 5.20584 13.7331 0 0 0 3.92429 -3.10645 3.93353 1.00794
H 0.77989 4.25505 6.40463 0 0 0 0.648879 4.53712 1.10141 1.00794
H -0.40463 2.93804 6.5172 0 0 0 -5.68751 -2.83023 -0.339542 1.00794
H 0.93501 3.0418 7.68727 0 0 0 1.23846 1.2202 3.53061 1.00794
H 0.6393 6.66436 8.37114 0 0 0 -0.56713 1.4073 -7.63426 1.00794
H 0.9387 5.50432 9.6874 0 0 0 1.50346 -6.85622 1.25886 1.00794
H -0.46887 6.58911 9.76718 0 0 0 -7.24447 0.147856 1.24784 1.00794
H 8.87657 8.24756 14.6169 0 0 0 -6.21485 1.00085 2.44005 1.00794
H -5.19269 7.49337 13.7223 0 0 0 3.15232 -3.88632 -3.61406 1.00794
H -4.87984 8.36157 15.2495 0 0 0 -0.831342 -3.13168 1.14037 1.00794
H -2.49125 5.88464 0.93237 0 0 0 -5.52688 -2.48214 1.30878 1.00794
H -1.1008 6.30564 1.96084 0 0 0 1.18694 1.12175 5.26864 1.00794
H -1.26971 7.05088 0.36507 0 0 0 -0.896823 6.09818 -6.66734 1.00794
H -3.88502 10.566 3.09524 0 0 0 -0.404485 2.74343 -5.73613 1.00794
H -4.22898 9.75602 4.64711 0 0 0 -0.147203 -5.46285 3.96775 1.00794
H -4.29234 11.5355 4.51702 0 0 0 -1.13962 5.74921 -0.799841 1.00794
H 7.3465 11.7486 2.37403 0 0 0 -1.90363 -5.10803 -2.16753 1.00794
H -6.59371 11.6235 1.3976 0 0 0 -5.69309 -2.98993 0.50048 1.00794
H 0.53876 0.39861 2.72462 0 0 0 8.60501 -2.72674 0.590989 1.00794
H -0.98932 1.86176 17.4614 0 0 0 12.6102 -2.97447 3.33657 1.00794
H 0.16844 1.85553 16.1133 0 0 0 3.04623 -2.68687 -5.2427 1.00794
H 0.27388 3.11923 17.3669 0 0 0 3.01977 5.18726 2.74263 1.00794
H -1.97336 10.1035 8.25023 0 0 0 -4.07986 -2.74214 -6.26814 1.00794
H -1.47128 8.58666 9.02346 0 0 0 -1.357 -6.52761 -2.35587 1.00794
H -2.55738 9.7061 9.88195 0 0 0 -7.23328 0.295196 5.63955 1.00794
H -3.8362 10.0724 13.6343 0 0 0 -4.0261 -5.43968 -1.74237 1.00794
H -3.05041 11.3694 14.5637 0 0 0 -0.148612 4.64202 5.52272 1.00794
H -3.00219 11.4052 12.786 0 0 0 0.532059 0.475718 -7.20382 1.00794
H 5.86922 1.04177 3.5441 0 0 0 -1.5754 3.74281 -1.11113 1.00794
H 4.76564 0.60431 4.86505 0 0 0 -6.88078 -0.417657 1.63 1.00794
H 5.54219 2.2064 4.83543 0 0 0 1.90392 4.01714 -2.29182 1.00794
H 1.88204 2.03008 5.04043 0 0 0 1.45747 -8.88687 0.388227 1.00794
H 1.58117 3.33634 3.87524 0 0 0 -0.193623 1.30844 -6.03551 1.00794
H 2.84345 3.52274 5.10593 0 0 0 4.20851 3.22952 2.29942 1.00794
H 4.02768 0.90665 15.8263 0 0 0 1.32163 -5.37137 3.3126 1.00794
H 4.75027 2.28158 14.9742 0 0 0 4.24041 2.41289 -0.386495 1.00794
H 3.15741 2.45665 15.7483 0 0 0 -6.36589 5.41561 3.43794 1.00794
H 5.8372 1.0752 8.84802 0 0 0 -0.954035 0.35107 4.35966 1.00794
H -1.53968 12.1311 7.71026 0 0 0 0.0952224 -2.07524 -1.47489 1.00794
H 6.6833 1.12242 7.29009 0 0 0 3.79209 1.32818 -4.28008 1.00794
H 9.89071 1.10329 8.90671 0 0 0 3.18381 -3.46038 -5.89683 1.00794
H 9.43743 0.636896 10.5552 0 0 0 -0.0959987 -4.47157 3.66252 1.00794
H 8.53161 1.91362 9.7178 0 0 0 -6.73155 2.12081 -0.2673 1.00794
H 0.0996 9.83612 9.87131 0 0 0 7.13388 -2.1563 -3.74364 1.00794
H -0.71399 11.1373 10.7539 0 0 0 -5.6318 6.82519 -1.66959 1.00794
H 1.01074 10.8316 11.0258 0 0 0 5.5357 1.10438 2.02317 1.00794
H 7.41498 1.56042 15.5683 0 0 0 1.41372 5.1257 -4.77673 1.00794
H 0.96856 12.3524 15.5753 0 0 0 4.33201 -1.92988 -0.294325 1.00794
H -0.77844 12.5104 15.8143 0 0 0 -4.50073 0.0454206 -4.40752 1.00794
H 5.82264 4.63993 6.57704 0 0 0 -2.19687 4.95257 0.262622 1.00794
H 4.84237 3.14975 6.66641 0 0 0 -6.78659 -1.07886 2.24694 1.00794
H 6.09321 3.4772 7.88577 0 0 0 2.5022 -1.49582 6.89123 1.00794
H 0.38872 6.27614 11.9468 0 0 0 1.75406 -2.70225 -3.75879 1.00794
H 0.2701 7.79148 12.8657 0 0 0 0.0292665 6.01396 -0.329541 1.00794
H 0.77998 6.29186 13.6785 0 0 0 5.71928 -6.36191 1.10496 1.00794
H 2.27102 8.88186 10.4927 0 0 0 -5.56523 -1.17371 5.9025 1.00794
H 2.39695 7.22395 9.86984 0 0 0 1.84648 -3.03571 0.0298595 1.00794
H 3.86587 8.08651 10.3659 0 0 0 3.97455 -8.9812 6.18165 1.00794
H 0.77719 7.52957 15.4573 0 0 0 2.63368 2.23923 -2.11315 1.00794
H 1.08005 8.15648 17.0882 0 0 0 8.07964 -2.52862 2.77468 1.00794
H 0.00185 6.74943 16.867 0 0 0 -2.32871 -5.91047 3.20074 1.00794
H 2.69578 10.1865 2.49522 0 0 0 -5.51242 1.47498 -0.947181 1.00794
H 3.77964 8.98803 1.73993 0 0 0 -0.654926 -6.86946 -3.59037 1.00794
H 3.49244 8.95928 3.48688 0 0 0 -4.9687 -3.67193 4.99661 1.00794
H -1.56063 8.00977 15.7772 0 0 0 -1.61644 -4.46803 0.975118 1.00794
H -1.53132 9.53726 14.8693 0 0 0 5.51513 4.33544 -2.73416 1.00794
H -2.96313 9.1094 15.8316 0 0 0 0.683108 0.705432 5.18234 1.00794
H -0.8219 9.83403 6.02708 0 0 0 0.497947 -2.64015 7.57183 1.00794
H -0.29719 10.2876 4.40359 0 0 0 2.95156 0.488318 -5.90929 1.00794
H -0.9162 11.5383 5.50285 0 0 0 1.86292 3.1597 2.16539 1.00794
H -0.59425 1.58781 8.72394 0 0 0 1.4584 0.914799 -2.17766 1.00794
H -8.11529 12.474 9.57347 0 0 0 -1.81553 -5.5827 -1.53885 1.00794
H 13.3935 1.44492 9.77963 0 0 0 -6.30451 2.65417 1.18376 1.00794
H 11.5405 2.59656 13.0549 0 0 0 0.258355 0.542924 5.82989 1.00794
H 11.1388 1.98947 11.4364 0 0 0 -3.2894 -4.7386 -3.72393 1.00794
H 12.805 2.46732 11.8175 0 0 0 2.56255 -1.90792 -0.21984 1.00794
H -0.9372 0.70219 13.8236 0 0 0 1.54782 1.77085 -0.387094 1.00794
H 6.54658 11.6777 14.5861 0 0 0 -1.10477 -5.66563 -3.08965 1.00794
H 13.2129 0.90234 15.0574 0 0 0 -2.79571 4.32043 0.651424 1.00794
H 3.68985 10.7503 13.6646 0 0 0 6.05603 -5.00238 -0.170942 1.00794
H 2.84388 11.6754 12.408 0 0 0 -0.488461 -0.630365 -4.3089 1.00794
H 2.91776 12.3092 14.067 0 0 0 1.10023 7.57635 0.0908785 1.00794
H 8.95085 2.31143 4.22974 0 0 0 1.11151 -4.0626 2.87785 1.00794
H 7.82074 2.44669 2.86596 0 0 0 -1.20135 -1.35306 -0.13573 1.00794
H 7.98814 3.79575 4.00123 0 0 0 3.60637 4.95931 1.10617 1.00794
H 4.21914 5.78854 5.18146 0 0 0 -0.383147 -5.09113 1.56671 1.00794
H 3.70414 6.65273 3.72111 0 0 0 1.65271 -3.81526 -3.93719 1.00794
H 4.45428 7.54589 5.0813 0 0 0 4.44827 5.77041 2.85572 1.00794
H 11.2908 4.74917 8.54192 0 0 0 -0.257675 0.477424 -1.53212 1.00794
H 11.2836 3.00805 8.85837 0 0 0 2.58899 -5.23308 2.20532 1.00794
H 10.0307 4.04042 9.59313 0 0 0 -3.11176 -1.79858 1.77809 1.00794
H 7.95326 4.01044 10.6819 0 0 0 4.23531 -1.03437 5.87601 1.00794
H 7.82984 4.81138 9.08561 0 0 0 -0.979543 5.07701 -0.0757146 1.00794
H 6.49312 4.91863 10.2534 0 0 0 -3.76473 0.477098 0.156813 1.00794
H 7.30487 6.159 13.1511 0 0 0 0.338823 -2.39061 -2.0545 1.00794
H 6.19074 7.01347 12.0706 0 0 0 -4.77206 -0.360257 -3.54799 1.00794
H 7.54974 7.88848 12.8065 0 0 0 5.40177 5.33181 -1.31023 1.00794
H 2.94453 9.23561 16.1321 0 0 0 0.462004 -3.22901 -2.69177 1.00794
H 2.98183 10.9926 15.8417 0 0 0 0.725183 1.74922 1.93596 1.00794
H 2.68405 10.3936 17.4779 0 0 0 0.183781 1.66014 3.55366 1.00794
H 5.51662 9.91634 3.59286 0 0 0 6.4562 -3.60635 -2.0818 1.00794
H 5.50937 11.6924 3.68822 0 0 0 3.03485 -0.583164 4.34272 1.00794
H 4.44111 10.7495 4.74296 0 0 0 -3.33764 0.725543 6.24493 1.00794
C -0.78403 3.51031 2.38514 0 0 0 0.627888 4.08851 -3.21928 12.0107
C -5.13496 12.2162 7.0316 0 0 0 0.45017 -1.34727 -9.78738 12.0107
C -2.38756 5.53414 13.9723 0 0 0 1.87079 1.91118 -6.53616 12.0107
C 0.21055 3.63103 7.10759 0 0 0 5.48056 -0.505275 -5.40974 12.0107
C 0.15252 5.98681 9.08833 0 0 0 2.22509 -2.75411 0.144673 12.0107
C -5.58694 7.70369 14.7261 0 0 0 2.32043 6.55186 -5.44876 12.0107
C -1.8281 6.70191 1.23975 0 0 0 4.95685 -3.69363 -0.914288 12.0107
C -4.5095 10.5964 3.9956 0 0 0 7.00867 6.44653 -5.65755 12.0107
C -6.96917 11.7967 2.4114 0 0 0 6.18023 3.11068 -1.32027 12.0107
C 0.05791 2.05482 17.1898 0 0 0 -2.94284 5.83658 -4.61316 12.0107
C -2.31241 9.28482 8.89728 0 0 0 5.49213 1.86755 0.0600075 12.0107
C -3.6245 11.1508 13.6542 0 0 0 2.9171 -0.269923 -0.350627 12.0107
C 5.08664 1.42606 4.20898 0 0 0 4.27255 -0.483119 5.08689 12.0107
C 2.36434 2.80098 4.427 0 0 0 -3.13674 4.24955 8.41037 12.0107
C 4.14861 1.99753 15.8465 0 0 0 3.01669 -1.77176 -7.39287 12.0107
C 6.37481 0.460646 8.11314 0 0 0 -1.91254 5.42089 4.21054 12.0107
C 9.03955 0.949786 9.58096 0 0 0 -1.97443 -0.794539 0.471427 12.0107
C 0.22524 10.8542 10.2581 0 0 0 -3.87088 4.86105 2.05253 12.0107
C 7.28124 0.51598 15.2622 0 0 0 1.95525 -4.20118 8.8917 12.0107
C 5.31945 3.94201 7.26037 0 0 0 5.92816 -3.46437 -2.15082 12.0107
C 0.85725 6.86683 12.7457 0 0 0 -4.32476 1.63473 -4.48165 12.0107
C 2.80563 7.92927 10.6037 0 0 0 -5.64869 1.66952 -2.26812 12.0107
C 0.91657 7.23978 16.5062 0 0 0 -2.60818 1.06396 -0.739504 12.0107
C 3.01697 9.13482 2.51701 0 0 0 6.50388 7.64526 2.55383 12.0107
C -1.867 9.06179 15.8018 0 0 0 -0.54529 -2.63393 -4.77897 12.0107
C -0.3168 10.6208 5.45012 0 0 0 -3.82272 -3.55198 -2.19142 12.0107
C 14.0234 0.91049 9.05911 0 0 0 5.81278 1.69661 12.2106 12.0107
C 11.9072 1.97961 12.222 0 0 0 -3.51044 7.38428 5.5275 12.0107
C 13.5335 0.28492 14.2083 0 0 0 1.82149 0.465704 3.6846 12.0107
C 3.48324 11.7658 13.2986 0 0 0 -1.3828 4.13038 -0.121975 12.0107
C 8.53888 3.0034 3.48409 0 0 0 -7.82084 -1.39682 5.47578 12.0107
C 4.47603 6.6124 4.5008 0 0 0 -8.2473 -3.20519 3.77172 12.0107
C 10.638 3.87973 8.6958 0 0 0 9.69523 2.81614 -0.406053 12.0107
C 7.58718 4.8992 10.1508 0 0 0 -7.69526 2.08048 4.38823 12.0107
C 7.24483 6.92959 12.3725 0 0 0 -8.74188 -1.81702 0.569887 12.0107
C 3.24481 10.2019 16.5543 0 0 0 -1.22577 3.3388 -0.23995 12.0107
C 5.43679 10.7709 4.27784 0 0 0 -5.83486 3.89023 -9.32282 12.0107
O -2.989 5.84387 4.88134 0 0 0 36.3086 -74.6535 -22.5833 15.9994
O -2.04772 5.4128 7.31877 0 0 0 -59.4188 -47.7664 38.185 15.9994
O -4.39579 5.45511 16.0559 0 0 0 6.80912 -2.5797 80.1504 15.9994
O -3.98072 7.34906 2.96591 0 0 0 -66.064 56.4818 -19.0725 15.9994
O -3.5751 8.97725 0.9175 0 0 0 -34.0292 -29.8366 10.407 15.9994
O -4.49324 11.4634 0.42021 0 0 0 -69.1565 -10.7272 39.1448 15.9994
O -4.20581 7.19969 9.21946 0 0 0 -51.997 -52.5997 -50.4305 15.9994
O -3.27904 7.69835 6.73777 0 0 0 -51.4523 37.1282 -53.1998 15.9994
O -5.97249 11.2532 9.60855 0 0 0 -52.1167 -25.332 -65.1561 15.9994
O -6.01079 11.7853 12.202 0 0 0 -36.7336 75.3994 -10.3833 15.9994
O 2.97311 0.97094 2.27326 0 0 0 -41.5879 -44.9581 44.303 15.9994
O 6.83027 1.02907 1.06836 0 0 0 5.44807 47.7163 58.009 15.9994
O 1.93774 1.43838 9.33866 0 0 0 -73.1803 10.4249 -35.6863 15.9994
O 1.65345 3.27723 11.2516 0 0 0 13.8928 79.1106 23.9338 15.9994
O 3.85881 1.7448 11.0907 0 0 0 -10.9085 -60.4115 10.4853 15.9994
O 5.68681 1.13407 12.8946 0 0 0 -47.3177 -25.4476 62.6096 15.9994
O 4.0959 3.34602 2.27704 0 0 0 -77.1171 13.319 -14.4366 15.9994
O 6.12979 3.5237 0.54852 0 0 0 35.982 49.3221 -61.9663 15.9994
O -0.87192 7.2151 5.73954 0 0 0 -2.63489 82.4428 25.6469 15.9994
O 4.4056 5.49561 0.80631 0 0 0 -26.967 50.6703 37.1858 15.9994
O 3.35878 3.69617 9.32763 0 0 0 16.4634 23.6643 -9.37368 15.9994
O 5.09254 3.72583 12.3265 0 0 0 61.6332 51.1416 -25.9243 15.9994
O 3.58477 5.91384 12.4132 0 0 0 23.4392 14.0109 -83.0204 15.9994
O 0.68774 7.95187 3.69338 0 0 0 -49.6777 59.3574 -2.50901 15.9994
O 0.59383 8.61106 1.10778 0 0 0 -71.7987 -27.2011 9.08601 15.9994
O -0.2231 10.9354 0.08535 0 0 0 -31.036 20.7707 -54.0506 15.9994
O 1.4607 11.1845 7.6974 0 0 0 38.6268 -35.2803 36.1153 15.9994
O 11.9172 0.37387 0.53659 0 0 0 19.8629 -55.0352 -4.89047 15.9994
O 12.9312 2.87065 4.6353 0 0 0 17.0581 72.2909 -11.0299 15.9994
O 12.3382 1.68081 6.95328 0 0 0 7.08807 56.8248 55.1339 15.9994
O 10.7937 2.339 1.93422 0 0 0 73.5182 25.4776 0.876982 15.9994
O 10.9136 4.7172 3.05454 0 0 0 71.1429 -36.7287 -8.29689 15.9994
O 6.11324 4.98443 2.78233 0 0 0 65.4368 -41.4939 20.7124 15.9994
O 8.76669 6.46438 17.0715 0 0 0 47.727 60.0599 46.6328 15.9994
O 9.2854 4.31647 1.02427 0 0 0 -42.2922 -70.9749 -36.6867 15.9994
O 10.6401 3.37411 5.88278 0 0 0 -8.74527 56.6004 -42.8962 15.9994
O 9.79803 6.4237 4.77742 0 0 0 -1.31063 63.7539 -14.9577 15.9994
O 7.19185 5.97328 4.96037 0 0 0 -33.1136 -52.7883 34.9244 15.9994
O 8.77499 5.00587 6.81363 0 0 0 -47.0711 2.43781 74.1761 15.9994
O 8.69122 5.05569 14.8281 0 0 0 -78.3672 18.3791 5.02439 15.9994
O 5.02279 5.10598 14.5303 0 0 0 44.7684 -45.1333 17.9796 15.9994
O 6.17386 6.01027 16.6791 0 0 0 -17.4039 -66.357 10.4006 15.9994
O 3.69209 6.82938 16.0668 0 0 0 -15.6226 75.6252 -1.69461 15.9994
O 9.86249 6.29988 11.3553 0 0 0 -21.4174 -39.2531 63.7938 15.9994
O 6.64799 7.58239 2.86349 0 0 0 -59.6831 61.0198 4.26097 15.9994
O 8.78699 6.87652 1.3907 0 0 0 56.8654 -8.76908 65.2431 15.9994
O 8.84387 9.04698 2.81361 0 0 0 88.1776 -19.8105 22.3321 15.9994
O 7.21739 8.90779 0.68111 0 0 0 -54.4028 8.01405 0.916098 15.9994
O 8.41943 7.60144 6.68994 0 0 0 64.6506 56.3887 8.36729 15.9994
O 4.59237 11.7501 8.00416 0 0 0 -64.4577 27.929 -31.8371 15.9994
O 8.25108 10.5141 4.96987 0 0 0 60.1895 -13.9849 41.2599 15.9994
O 6.39949 9.37255 6.51891 0 0 0 -58.8165 -21.2113 -5.72319 15.9994
O 6.77937 12.0309 6.50072 0 0 0 61.3942 36.8138 -10.2876 15.9994
O 7.69068 10.0139 11.2018 0 0 0 7.34574 -85.0921 21.5143 15.9994
O 5.50528 9.8781 9.71593 0 0 0 22.0263 -33.5315 -38.7883 15.9994
O 5.71133 11.7819 11.5689 0 0 0 8.93179 72.8931 -41.978 15.9994
310
Timestep=62 Time=62.000000 pbc="T T T" Lattice="15.4114 0 0 -7.20268 12.4027 0 -1.82607 0.338403 17.5034" Potential_energy=-202.66987361638274 Temperature=0 Stress="10269.574830700869 -704.599382748377 -2342.074532461003 -704.599382748377 13658.474314993258 -1717.0595624497996 -2342.074532461003 -1717.0595624497996 15949.283317504533" Properties=species:S:1:pos:R:3:vel:R:3:forces:R:3:mass:R:1
Si 3.11628 0.397493 0.828887 0 0 0 -0.143911 0.68834 -0.456593 28.0855
Si -1.39124 2.39167 3.44354 0 0 0 0.244968 0.673753 0.0908897 28.0855
Si -4.73071 12.4971 8.95002 0 0 0 -1.14963 0.551704 0.0161816 28.0855
Si 11.1271 1.14069 17.0874 0 0 0 -0.387771 -0.785125 1.12112 28.0855
Si 0.296515 3.12822 11.9993 0 0 0 -0.255129 -0.0462716 -0.209381 28.0855
Si 11.0727 6.03064 3.90789 0 0 0 2.86372 0.836447 -0.978158 28.0855
Si -3.22508 4.95584 15.7442 0 0 0 -0.31354 1.02013 -0.0949285 28.0855
Si -0.989361 4.93751 8.22773 0 0 0 -0.124018 -0.548894 0.426844 28.0855
Si -4.29294 6.71244 10.6809 0 0 0 -0.578634 -0.735273 0.0949583 28.0855
Si -2.58618 6.65776 6.30875 0 0 0 -0.386535 1.02595 1.7214 28.0855
Si 9.37444 6.20956 15.672 0 0 0 0.613183 0.545825 -1.46051 28.0855
Si -3.1847 8.08808 2.04271 0 0 0 0.997153 0.142452 0.587681 28.0855
Si 8.91694 10.3342 3.33542 0 0 0 -0.18322 1.01545 -0.116896 28.0855
Si -5.82919 10.3104 17.384 0 0 0 1.37478 -0.0754646 -0.313297 28.0855
Si -4.06433 8.32792 8.17978 0 0 0 1.24305 -0.336136 -0.506873 28.0855
Si -6.03508 10.8828 11.0259 0 0 0 1.39027 0.226328 -0.244701 28.0855
Si -5.45391 12.0131 13.6618 0 0 0 0.359659 -0.875755 0.915849 28.0855
Si -0.286431 11.9207 1.51143 0 0 0 -0.662372 0.340774 -0.230721 28.0855
Si 3.79047 2.34294 3.06713 0 0 0 -0.324251 0.353256 -0.948006 28.0855
Si 6.7881 2.11065 0.062838 0 0 0 -1.15015 1.52393 -0.727898 28.0855
Si 0.341693 11.8333 8.87765 0 0 0 0.303983 -0.30294 0.0713265 28.0855
Si 2.77737 2.63104 10.5057 0 0 0 1.37011 0.390178 -0.290514 28.0855
Si -0.181718 12.6271 13.6318 0 0 0 -0.170326 0.0796793 -0.463223 28.0855
Si 5.10327 1.82954 12.0997 0 0 0 -0.447812 0.104489 1.61529 28.0855
Si 5.49392 4.4295 1.58032 0 0 0 2.04091 0.98808 1.5167 28.0855
Si 0.0642011 7.06559 4.95167 0 0 0 0.549566 1.20239 0.496858 28.0855
Si 2.49614 6.0039 16.7142 0 0 0 -0.667681 0.242514 1.26701 28.0855
Si 3.84819 4.44922 8.40203 0 0 0 -0.237881 -0.471874 0.539952 28.0855
Si 4.5793 4.57583 13.1266 0 0 0 -0.322854 0.0455145 -0.0463442 28.0855
Si 3.19289 7.16587 12.3687 0 0 0 0.652791 1.23234 -0.956101 28.0855
Si 1.1079 8.16704 2.40737 0 0 0 -0.421988 -0.541966 0.0332469 28.0855
Si -1.13823 10.0458 17.3647 0 0 0 1.50774 -0.991435 0.179315 28.0855
Si 1.27226 11.0172 6.17435 0 0 0 -0.0140075 -0.402809 0.579668 28.0855
Si 10.8029 0.784129 1.4918 0 0 0 -0.32918 -0.405057 0.0387662 28.0855
Si 13.2823 0.478141 7.25565 0 0 0 -1.79821 -0.0265618 -0.667394 28.0855
Si 11.8568 2.39474 5.44318 0 0 0 0.0546031 1.49233 -0.161408 28.0855
Si 5.25242 12.6406 12.746 0 0 0 -0.399427 0.419404 0.168042 28.0855
Si 10.2597 3.69042 2.00958 0 0 0 -0.131233 -0.59176 -1.16973 28.0855
Si 6.226 6.1654 4.07271 0 0 0 0.963597 0.453973 0.244653 28.0855
Si 9.05454 5.74372 0.243289 0 0 0 -0.200869 0.017858 -1.08183 28.0855
Si 9.74328 3.70225 7.22013 0 0 0 1.78137 -0.656457 -0.136603 28.0855
Si 8.57821 6.12873 5.89897 0 0 0 2.25206 -0.449639 -4.66264 28.0855
Si 9.0755 3.82766 13.9161 0 0 0 -0.158954 -0.528685 -0.259059 28.0855
Si 5.18625 6.33867 15.4454 0 0 0 0.979127 1.30654 -0.226475 28.0855
Si 8.22102 6.40758 10.8424 0 0 0 -0.462507 -0.396086 0.556768 28.0855
Si 7.86479 7.80619 2.06862 0 0 0 0.765946 -0.175033 -0.430563 28.0855
Si 5.02018 9.64962 17.2052 0 0 0 2.13568 1.05696 -0.960245 28.0855
Si 7.39526 8.39696 7.32695 0 0 0 0.427413 0.0771084 1.57519 28.0855
Si 4.4909 10.7948 8.74578 0 0 0 0.734881 0.0930976 -0.454156 28.0855
Si 6.69907 10.5291 5.43951 0 0 0 0.584234 1.1415 1.19152 28.0855
Si 6.37522 10.4775 11.0272 0 0 0 -1.97596 -0.0669598 1.12201 28.0855
H 4.4308 0.291477 0.280538 0 0 0 0.0815802 0.439642 -0.462326 1.00794
H -0.385014 2.05604 4.45446 0 0 0 0.710255 -0.346515 0.0862292 1.00794
H 13.4781 1.23235 2.78389 0 0 0 -0.652443 0.343734 0.0949709 1.00794
H -3.46415 12.1365 9.59827 0 0 0 0.281541 -0.115899 0.0105539 1.00794
H 10.7687 0.634188 15.7667 0 0 0 -0.401248 0.999156 0.288179 1.00794
H 12.5593 1.03048 17.3515 0 0 0 -0.211267 -1.15776 -0.556841 1.00794
H -0.267579 1.9669 11.2991 0 0 0 -0.150085 0.632042 0.911461 1.00794
H -0.716941 4.18668 12.0598 0 0 0 -0.741533 0.429028 -0.0265869 1.00794
H 0.681052 2.76058 13.3678 0 0 0 0.273863 0.459556 -0.181507 1.00794
H -2.18841 5.15025 16.765 0 0 0 0.90823 -0.073995 0.0901089 1.00794
H -1.34579 3.92719 9.23295 0 0 0 -0.334442 0.161703 -0.592838 1.00794
H -4.1282 7.96704 11.4071 0 0 0 0.399375 0.878671 0.354824 1.00794
H -3.23083 3.53138 15.4212 0 0 0 -0.465556 -0.932579 -0.378939 1.00794
H -2.36094 9.21911 2.47166 0 0 0 -0.153696 -0.959078 0.339772 1.00794
H -6.62303 10.1175 16.1775 0 0 0 0.0241122 0.0328966 -0.0378925 1.00794
H -4.41577 10.5705 17.0898 0 0 0 -0.369139 0.0243579 -0.341231 1.00794
H -5.10316 9.34413 8.17359 0 0 0 -0.0480151 0.139704 -0.287875 1.00794
H -6.49747 11.2631 14.3455 0 0 0 0.0977108 0.38061 -0.781394 1.00794
H 1.9393 0.925783 14.2836 0 0 0 -0.978665 -0.446919 -0.623804 1.00794
H -1.31414 11.2079 2.27086 0 0 0 0.802453 0.168277 0.0693581 1.00794
H 0.942794 11.9312 2.28835 0 0 0 0.971414 0.434519 -0.706409 1.00794
H 6.34554 2.28781 17.1532 0 0 0 0.761778 0.0455186 0.697934 1.00794
H -0.336216 11.2003 13.3332 0 0 0 -0.57538 0.304693 -0.182434 1.00794
H 8.00057 0.793697 12.6943 0 0 0 0.0542895 0.474647 -0.127388 1.00794
H 5.87609 1.28459 10.9882 0 0 0 0.211872 0.34962 -0.263816 1.00794
H -0.234574 5.74594 4.39016 0 0 0 0.623369 0.338698 -0.963622 1.00794
H 1.37884 7.04022 5.61177 0 0 0 -0.340794 0.114787 0.338814 1.00794
H 2.21283 4.60902 16.3766 0 0 0 0.126141 0.441662 -0.22104 1.00794
H 4.2249 5.84582 8.66775 0 0 0 -0.0682356 -0.00968089 -0.0912592 1.00794
H 2.47917 4.35968 7.92494 0 0 0 0.0892723 0.243167 0.140831 1.00794
H 3.28235 3.99262 13.5046 0 0 0 0.358082 -0.328833 -0.18552 1.00794
H 3.70771 8.09533 13.3811 0 0 0 -0.0766652 -0.334104 -0.350819 1.00794
H 1.51704 6.77567 2.16494 0 0 0 0.195288 -0.246319 -0.216017 1.00794
H 0.311913 10.2459 17.4 0 0 0 -0.367612 0.773161 -0.0893585 1.00794
H 1.89314 12.3322 5.9578 0 0 0 0.273765 0.0110751 0.0137789 1.00794
H 2.13393 9.96351 5.63778 0 0 0 0.069315 -0.686198 0.237134 1.00794
H 9.69197 0.695172 0.567315 0 0 0 -0.37379 0.366212 0.580042 1.00794
H 10.4316 0.172978 2.77136 0 0 0 0.353996 0.0139676 0.652063 1.00794
H 11.1084 1.20729 5.00928 0 0 0 0.626776 -0.34122 0.0738157 1.00794
H 10.765 2.56298 17.0746 0 0 0 1.28656 -0.181832 0.389496 1.00794
H 8.64379 2.75194 6.98614 0 0 0 0.514187 -0.0366924 0.699718 1.00794
H -3.07772 5.90478 10.864 0 0 0 -0.225418 -0.091611 0.187579 1.00794
H 9.66961 2.86887 14.845 0 0 0 0.379968 -0.53405 0.119069 1.00794
H 10.1533 4.26729 13.0427 0 0 0 0.191044 0.433283 -0.277597 1.00794
H 5.8576 7.48131 14.8125 0 0 0 0.441703 -0.832449 0.277871 1.00794
H 8.02164 3.21473 13.1099 0 0 0 -0.121766 -0.459747 -0.425283 1.00794
H 8.31896 7.49967 9.88837 0 0 0 0.161057 0.286398 0.551771 1.00794
H 7.17045 10.5729 0.339537 0 0 0 0.359294 -0.675474 0.59503 1.00794
H 6.08814 9.35127 16.2392 0 0 0 -0.681253 0.340481 0.590089 1.00794
H 8.05642 9.25741 8.31022 0 0 0 0.38194 -0.421025 -0.790558 1.00794
H 6.70524 7.30268 8.02988 0 0 0 0.155257 0.440605 0.344856 1.00794
H -4.85934 10.0536 11.2664 0 0 0 -0.148037 -0.489946 0.00708925 1.00794
H 3.85966 9.63231 8.10069 0 0 0 0.115572 0.664803 0.106228 1.00794
H 3.60178 11.2097 9.82142 0 0 0 -0.330082 0.527668 0.619704 1.00794
H 5.47209 9.63121 11.8167 0 0 0 0.168027 1.05098 -1.06708 1.00794
H -1.5124 3.68577 1.36482 0 0 0 0.333032 0.673182 0.0520761 1.00794
H 0.111815 2.92321 1.57405 0 0 0 0.249281 -0.191423 0.385575 1.00794
H -0.301623 4.39579 2.51932 0 0 0 -0.387077 0.151675 -0.962988 1.00794
H 1.63011 0.23435 6.64979 0 0 0 -0.48955 -0.270628 -0.424919 1.00794
H -4.27058 11.3846 6.81771 0 0 0 0.6973 -0.88826 -0.333976 1.00794
H 3.35894 0.73759 6.75156 0 0 0 0.502424 0.755448 -0.616522 1.00794
H -2.68963 6.94572 14.3395 0 0 0 -0.333653 -0.372534 0.318752 1.00794
H -3.38091 5.586 13.3693 0 0 0 0.416536 -0.144423 -0.0444853 1.00794
H -1.67137 5.52764 13.9186 0 0 0 0.123558 -0.24063 0.686061 1.00794
H 0.784838 4.74845 6.52022 0 0 0 0.136862 0.428758 -0.99077 1.00794
H -0.717682 3.90936 6.00934 0 0 0 -0.530949 -0.39411 -0.408816 1.00794
H 0.404105 3.14755 7.20584 0 0 0 -0.355954 -0.0148518 0.0950254 1.00794
H 0.338716 7.02592 8.39347 0 0 0 -0.284256 -0.0855168 -0.234917 1.00794
H 1.02139 5.70925 9.42443 0 0 0 -0.337436 -0.56124 -0.585334 1.00794
H -0.442555 6.59785 9.97582 0 0 0 -0.221566 -0.619522 -0.56634 1.00794
H 9.18973 8.37306 14.5096 0 0 0 -0.210217 -0.296963 0.032705 1.00794
H -5.11627 7.24184 13.6277 0 0 0 -0.522933 0.644218 -0.103089 1.00794
H -4.57294 8.0867 15.141 0 0 0 -1.07519 -0.144572 -0.61149 1.00794
H -2.62007 5.86309 1.13655 0 0 0 -0.18889 -0.347847 0.36135 1.00794
H -1.35925 6.4508 2.25539 0 0 0 0.689956 -0.743514 -0.00992925 1.00794
H -1.4967 7.07254 0.546116 0 0 0 0.36797 0.631369 -0.341309 1.00794