366
Timestep=0 Time=0.000000 pbc="T T T" Lattice="15.5462 0 0 -7.58397 13.466 0 0.177804 0.437127 17.2465" Potential_energy=2237.9840104222044 Temperature=0 Stress="151217.2732760463 -6863.075003198106 -867.8338283294345 -6863.075003198106 151634.1675428839 -4958.140799063946 -867.8338283294345 -4958.140799063946 151775.52374532408" Properties=species:S:1:pos:R:3:vel:R:3:forces:R:3:mass:R:1
Si -5.41517 13.0871 1.67325 0 0 0 53.1854 6.83047 15.8483 28.0855
Si 14.2698 2.24866 3.78096 0 0 0 -16.7639 8.34371 -10.6841 28.0855
Si 1.47993 2.43773 17.025 0 0 0 -5.84157 8.24141 29.8262 28.0855
Si 2.60053 0.24391 7.73597 0 0 0 1.81708 -42.4812 -26.5829 28.0855
Si 1.11591 2.32672 5.69125 0 0 0 11.3722 20.8991 -87.1829 28.0855
Si -4.51324 13.7882 13.4507 0 0 0 -41.3347 -3.31496 -9.73465 28.0855
Si 14.3304 2.49405 15.281 0 0 0 -58.5153 17.8397 -17.043 28.0855
Si 1.80894 2.42791 11.6393 0 0 0 1.64049 12.5569 23.1153 28.0855
Si 0.08191 4.24535 1.61584 0 0 0 -35.8014 -15.7689 -19.517 28.0855
Si -1.03019 6.82524 17.2079 0 0 0 -11.0397 3.38311 27.5109 28.0855
Si -0.00214 5.01608 7.14271 0 0 0 -1.47862 30.0012 -4.00345 28.0855
Si -3.47909 6.97107 15.1326 0 0 0 0.0976594 -24.5238 5.75079 28.0855
Si -6.18415 11.7247 4.17856 0 0 0 -6.59546 -47.3084 -6.30942 28.0855
Si -4.3526 11.413 17.0154 0 0 0 12.9014 45.2512 -0.327903 28.0855
Si -2.18698 9.72973 7.66869 0 0 0 40.4697 24.965 -25.3878 28.0855
Si -3.444 12.0437 5.93577 0 0 0 16.9764 -18.1644 25.035 28.0855
Si -2.06863 9.03339 13.4004 0 0 0 28.1334 -12.2995 47.0292 28.0855
Si 9.04498 11.847 14.928 0 0 0 16.4209 -42.8768 23.1039 28.0855
Si -3.17429 11.5959 11.7851 0 0 0 -34.8874 26.1118 -0.45843 28.0855
Si 7.79633 0.29557 1.97713 0 0 0 4.88756 -7.89841 -4.63424 28.0855
Si 6.80662 2.75361 17.0278 0 0 0 -1.61684 15.0167 -3.91376 28.0855
Si 0.58895 13.5577 7.82375 0 0 0 0.365545 15.9069 16.7959 28.0855
Si 3.90914 2.04236 9.76255 0 0 0 -3.37207 67.8999 -29.2451 28.0855
Si 6.97447 2.41811 5.9953 0 0 0 2.40217 -29.3762 -5.84768 28.0855
Si 8.16885 0.5263 13.3422 0 0 0 -40.6632 -1.74006 31.019 28.0855
Si 4.21545 2.63472 15.3516 0 0 0 11.5533 -8.45711 -9.39551 28.0855
Si 6.43584 2.50937 11.5489 0 0 0 18.5201 16.1332 -10.7538 28.0855
Si 5.52841 4.76047 1.2162 0 0 0 -29.266 -29.5424 22.0979 28.0855
Si 1.56171 6.798 3.00501 0 0 0 15.221 12.9828 50.7683 28.0855
Si 4.43131 7.65025 17.2031 0 0 0 10.2697 -48.743 5.29572 28.0855
Si 5.27645 3.98148 7.87793 0 0 0 -36.9392 -1.11753 22.3127 28.0855
Si 5.47429 4.90638 13.4879 0 0 0 -13.5851 -9.11566 12.3146 28.0855
Si 1.62482 7.60657 15.6716 0 0 0 12.1496 -61.3736 -39.1114 28.0855
Si 3.77375 7.17005 11.994 0 0 0 -7.18486 37.4203 -16.1756 28.0855
Si 3.11982 9.2184 1.8726 0 0 0 -18.0708 -3.65078 11.3119 28.0855
Si -0.99065 11.7575 4.00904 0 0 0 10.6565 -16.1372 -29.7227 28.0855
Si 1.50704 11.4767 0.32159 0 0 0 -43.7056 -54.3276 19.8546 28.0855
Si 2.92113 9.61037 7.58048 0 0 0 -16.9075 10.6045 32.24 28.0855
Si -0.99481 11.6757 9.78908 0 0 0 32.8165 31.5211 -9.91227 28.0855
Si 1.81488 11.7041 5.66203 0 0 0 7.07119 10.063 2.64218 28.0855
Si 2.7106 9.53446 13.6771 0 0 0 -38.0944 28.6649 -6.13323 28.0855
Si 1.63444 11.62 11.4909 0 0 0 -15.0286 -1.86998 14.521 28.0855
Si 12.9368 0.11056 1.77632 0 0 0 -18.6138 28.5195 5.43269 28.0855
Si 9.18132 2.37417 3.85236 0 0 0 7.78598 12.9093 -1.99925 28.0855
Si 11.8243 2.55878 17.2133 0 0 0 -29.1336 -3.23254 -1.77012 28.0855
Si 5.48979 13.5765 7.45265 0 0 0 20.2326 19.6742 -22.5161 28.0855
Si 8.91776 2.33788 9.76578 0 0 0 19.1465 -8.84296 4.62676 28.0855
Si 11.8145 2.10513 5.60781 0 0 0 -5.38812 25.7827 -9.78342 28.0855
Si 12.6325 0.60729 13.5521 0 0 0 22.9873 -28.1845 0.982087 28.0855
Si 9.42431 2.63919 15.1753 0 0 0 -2.84515 43.2368 10.2854 28.0855
Si 11.2422 2.73683 11.6915 0 0 0 21.2694 -9.35702 -33.6206 28.0855
Si 10.4237 4.39111 1.75255 0 0 0 57.3246 -25.1047 11.6708 28.0855
Si 6.96379 6.47671 3.38357 0 0 0 -26.176 -18.4591 22.6705 28.0855
Si 9.44339 6.9799 17.0193 0 0 0 33.6049 44.9384 7.70139 28.0855
Si 10.6273 4.14523 7.7608 0 0 0 -2.69577 8.60629 -25.8792 28.0855
Si 10.4497 5.09114 13.539 0 0 0 38.2674 -38.9449 -12.651 28.0855
Si 6.87554 7.2338 15.2028 0 0 0 -31.3109 5.49661 -1.55403 28.0855
Si 9.26509 7.3 11.813 0 0 0 25.0029 -29.9637 3.51227 28.0855
Si 4.20629 11.369 3.78858 0 0 0 -4.9284 23.1546 5.75966 28.0855
Si 6.58816 12.1277 16.9124 0 0 0 -0.142035 -23.284 22.7626 28.0855
Si 7.90179 8.86418 7.39759 0 0 0 17.429 18.9792 13.8308 28.0855
Si 4.07732 11.8391 9.45001 0 0 0 -2.56503 -14.2944 24.4565 28.0855
Si 6.71022 11.2688 5.779 0 0 0 14.3343 37.4906 -19.2746 28.0855
Si 7.67236 9.61987 13.2319 0 0 0 12.5942 -15.8037 19.7779 28.0855
Si 3.79152 11.9538 15.3584 0 0 0 5.63312 11.1574 -12.4518 28.0855
Si 6.24522 11.7692 11.6596 0 0 0 33.0772 22.7234 10.547 28.0855
C 3.86566 0.19071 2.08932 0 0 0 15.6928 -3.044 4.98028 12.0107
C -6.08956 12.2687 7.96975 0 0 0 -5.35555 -7.07167 -2.19972 12.0107
C 2.2661 2.69547 4.31639 0 0 0 -3.37213 0.144779 -2.22905 12.0107
C -1.24435 3.92635 14.1319 0 0 0 -7.48945 9.59113 -1.28355 12.0107
C 0.05403 2.1911 11.1724 0 0 0 -3.62696 5.29319 4.41809 12.0107
C 1.92799 3.64045 12.9916 0 0 0 3.16394 4.42438 -1.35884 12.0107
C -1.83219 7.2944 1.4319 0 0 0 -5.58743 0.437792 0.852856 12.0107
C -0.26598 4.80462 8.97432 0 0 0 7.19015 2.82158 0.641529 12.0107
C -1.58803 5.37473 6.21751 0 0 0 -12.8469 -6.98643 10.882 12.0107
C 1.30178 6.32814 6.97559 0 0 0 -5.40544 -3.75137 3.8278 12.0107
C 9.46123 10.0003 3.5486 0 0 0 -2.73343 -7.06568 -5.59489 12.0107
C -3.61569 9.47163 0.29138 0 0 0 5.33598 7.50965 -3.4933 12.0107
C -3.19915 12.7173 16.4255 0 0 0 11.3333 3.65967 -4.2074 12.0107
C -2.90612 8.11671 8.15954 0 0 0 19.4639 -1.32323 -0.343953 12.0107
C -0.78512 9.30367 6.58066 0 0 0 4.61915 -9.71124 5.28922 12.0107
C -1.1107 7.80965 12.3828 0 0 0 9.57922 -2.62834 2.54211 12.0107
C -1.19963 9.91796 14.744 0 0 0 5.00587 -1.97921 -0.650441 12.0107
C -4.67307 11.2329 10.8123 0 0 0 7.62445 -3.84113 1.03217 12.0107
C 5.50517 1.9487 5.0245 0 0 0 6.04472 -11.508 -0.692549 12.0107
C -0.37468 13.1193 14.6202 0 0 0 -0.657586 0.843896 4.44785 12.0107
C 4.58026 3.50959 2.16005 0 0 0 -8.34972 -4.05488 -4.28517 12.0107
C 3.1632 6.30233 3.7593 0 0 0 3.44264 3.62816 5.61867 12.0107
C 0.30355 7.3689 4.20798 0 0 0 7.33368 -0.737636 4.77685 12.0107
C 3.94857 4.61021 6.77198 0 0 0 -3.00231 -3.12435 5.87018 12.0107
C 5.46297 5.11205 9.31476 0 0 0 -4.42679 5.00943 4.96051 12.0107
C 1.69547 5.95729 14.9029 0 0 0 3.8044 -10.5488 1.49564 12.0107
C 2.10557 6.67957 11.3451 0 0 0 -3.9265 3.33661 -8.24316 12.0107
C 4.87894 7.97369 10.7487 0 0 0 -2.79469 -2.06961 0.0834424 12.0107
C -1.57542 10.1279 3.38646 0 0 0 -8.76966 -4.38986 7.57639 12.0107
C -0.0977 10.5984 0.21815 0 0 0 -2.98657 -5.01399 0.703463 12.0107
C 1.74704 9.08604 8.91394 0 0 0 9.09123 1.59245 9.19544 12.0107
C 4.00911 8.29316 6.9001 0 0 0 -5.78211 -0.388771 5.59003 12.0107
C 14.3006 1.39095 7.93132 0 0 0 7.61649 4.65687 -6.45648 12.0107
C 12.5166 2.63544 10.3857 0 0 0 -10.2731 -3.3693 18.6435 12.0107
C 11.6159 5.26784 2.87443 0 0 0 3.88023 1.27244 4.21512 12.0107
C 8.79357 6.53562 3.68659 0 0 0 -6.42985 6.56642 13.2659 12.0107
C 6.33369 8.2011 3.49801 0 0 0 -4.18804 8.40661 9.50791 12.0107
C 6.14475 5.46245 4.69299 0 0 0 -4.34789 -1.12155 -9.05384 12.0107
C 9.0345 8.09643 0.69591 0 0 0 -3.39243 7.35025 -4.53273 12.0107
C 9.91477 5.25134 6.48032 0 0 0 3.74873 9.12222 -1.50959 12.0107
C 11.6333 5.1804 8.92501 0 0 0 -1.50527 15.0331 -7.97224 12.0107
C 10.8664 7.85598 11.1063 0 0 0 -4.62515 -2.8344 0.653297 12.0107
C 8.25639 6.27395 10.6668 0 0 0 6.16034 -5.66337 -6.64353 12.0107
C 6.82942 10.3244 0.78682 0 0 0 -1.86816 9.21964 -4.76456 12.0107
C 7.25326 7.14116 7.21447 0 0 0 -5.88868 0.578547 1.59032 12.0107
C 9.7126 8.80507 7.00282 0 0 0 8.08522 -2.86003 9.00759 12.0107
C 7.59942 9.60341 9.06621 0 0 0 -4.33474 -2.40215 3.65844 12.0107
C 7.8501 12.3658 11.0303 0 0 0 3.33666 6.18181 -1.58702 12.0107
O 1.43748 0.60312 0.58841 0 0 0 -59.3607 -56.6234 -29.5063 15.9994
O -0.18966 1.70448 4.87392 0 0 0 13.5515 -87.0752 30.581 15.9994
O 1.78689 1.34446 6.8237 0 0 0 15.41 39.9682 36.6601 15.9994
O 0.28568 2.31307 15.9307 0 0 0 20.6222 -34.5869 -65.4417 15.9994
O 2.44177 0.96566 12.0992 0 0 0 -8.59111 -34.6171 -58.9178 15.9994
O -0.71731 3.50983 2.86071 0 0 0 -30.1221 60.1847 41.1134 15.9994
O 1.05153 3.16778 0.88669 0 0 0 75.9925 16.7759 33.3581 15.9994
O -0.90819 4.83704 0.45025 0 0 0 -37.0348 -41.2994 -31.7042 15.9994
O 0.63399 3.63712 6.50944 0 0 0 -11.4767 -4.23438 46.2672 15.9994
O -2.09594 6.75218 15.9696 0 0 0 31.1527 -32.1231 -35.0242 15.9994
O -6.29148 12.9137 3.04904 0 0 0 -35.9829 42.6807 -4.55342 15.9994
O -5.38499 11.5752 1.04391 0 0 0 -12.3729 -41.0238 17.4262 15.9994
O -4.79928 11.932 5.04473 0 0 0 11.2813 -1.04263 -47.8498 15.9994
O -3.24219 10.6995 6.84009 0 0 0 -62.9773 -50.6655 11.3516 15.9994
O -3.60732 13.3196 6.92508 0 0 0 23.7385 14.401 22.9485 15.9994
O -3.34793 8.2572 14.1407 0 0 0 -52.163 50.4323 -30.4737 15.9994
O -5.46791 11.0246 15.8717 0 0 0 16.7524 -64.6484 -5.15004 15.9994
O -5.75044 13.1795 14.3381 0 0 0 -42.0873 70.2918 31.2392 15.9994
O -2.60515 10.1871 12.3619 0 0 0 21.9187 -38.6226 -54.3527 15.9994
O -3.47465 12.6006 13.0552 0 0 0 43.7963 -28.8229 47.666 15.9994
O 6.95058 1.37156 1.08203 0 0 0 -59.8241 27.5997 49.8981 15.9994
O 3.11105 0.71223 9.23167 0 0 0 -11.4346 -47.1571 65.5831 15.9994
O 2.71408 3.00101 10.3585 0 0 0 -14.4648 41.2134 -19.1289 15.9994
O 7.48313 1.09012 6.77482 0 0 0 -46.2334 -31.8655 -34.4542 15.9994
O 3.90018 1.47234 14.2594 0 0 0 69.5088 -6.72027 -37.9951 15.9994
O 5.45078 2.16509 16.3157 0 0 0 -5.72378 -80.6486 17.475 15.9994
O 2.87927 2.84203 16.2666 0 0 0 3.61701 73.5186 19.0065 15.9994
O 5.02067 1.94245 10.9652 0 0 0 -31.6769 -92.6168 49.5363 15.9994
O 7.08559 1.34257 12.4396 0 0 0 -50.1037 -57.9 15.0313 15.9994
O 6.38408 3.88552 0.11522 0 0 0 31.4703 67.1924 -39.8845 15.9994
O 0.96945 5.50181 2.15838 0 0 0 60.2606 10.0234 -30.8457 15.9994
O 4.34017 5.70481 0.56487 0 0 0 -62.5484 -43.9197 2.13993 15.9994
O 4.66602 2.55738 8.43656 0 0 0 21.8998 -19.4384 -56.5926 15.9994
O 6.68691 3.59871 7.10284 0 0 0 31.0702 41.0176 24.3433 15.9994
O 4.66895 4.02005 14.6113 0 0 0 -44.2231 67.4979 45.2057 15.9994
O 6.2458 3.87103 12.4676 0 0 0 75.1923 38.1688 -12.8138 15.9994
O 2.98995 7.86748 16.5132 0 0 0 -20.8504 45.5412 12.8226 15.9994
O 0.31138 7.61031 16.661 0 0 0 18.9264 56.9448 58.5121 15.9994
O 4.41904 5.78225 12.62 0 0 0 -52.721 -39.6541 -43.0884 15.9994
O 1.89515 8.15973 2.10779 0 0 0 -79.4661 -1.16384 -40.8579 15.9994
O 4.32142 8.40457 1.09322 0 0 0 75.9724 17.8334 15.6721 15.9994
O -0.83767 12.7507 2.71406 0 0 0 -66.5167 -3.25995 -45.3069 15.9994
O -2.14489 12.3336 5.00658 0 0 0 20.5958 80.7319 0.908827 15.9994
O 2.57639 10.5024 1.06359 0 0 0 59.3714 41.4676 -21.3866 15.9994
O 1.26804 12.9129 1.08249 0 0 0 84.3052 38.5938 -12.5066 15.9994
O -1.7042 10.389 9.09961 0 0 0 -21.407 -61.2448 53.5899 15.9994
O -0.53943 12.6276 8.54498 0 0 0 -72.8096 11.1546 -55.9885 15.9994
O -2.05748 12.3475 10.8236 0 0 0 -11.081 67.4196 -0.26938 15.9994
O 0.4319 11.6932 4.80404 0 0 0 -10.6195 -42.3246 11.9193 15.9994
O 2.1259 10.2253 6.26369 0 0 0 -28.9751 -66.2059 -30.6073 15.9994
O 1.67506 12.6966 6.95602 0 0 0 86.6148 17.027 35.7811 15.9994
O 1.52946 8.88217 14.6191 0 0 0 -56.7699 15.528 -7.67595 15.9994
O 3.63558 8.28526 13.2077 0 0 0 66.7988 -25.9421 37.0351 15.9994
O 0.27695 11.2062 10.6923 0 0 0 -11.4668 -78.4546 13.1085 15.9994
O 2.05108 10.3137 12.3921 0 0 0 -19.8216 -61.3508 -44.5508 15.9994
O 1.40958 12.9169 12.425 0 0 0 60.0313 42.4448 7.88392 15.9994
O 13.8035 1.04049 2.79736 0 0 0 49.4426 -42.7685 9.13947 15.9994
O 8.58476 1.03399 3.17702 0 0 0 25.0119 -62.0803 56.5371 15.9994
O 8.14473 2.96245 4.96577 0 0 0 -10.6583 63.9492 1.55549 15.9994
O 13.2676 2.71095 16.4992 0 0 0 53.1664 45.9555 48.0519 15.9994
O 11.7131 0.94477 1.0945 0 0 0 -65.0448 -18.8684 21.1613 15.9994
O 8.90845 0.89222 9.02452 0 0 0 57.1098 -44.1445 31.507 15.9994
O 7.44108 2.82326 10.2863 0 0 0 -32.5118 39.0082 -51.4804 15.9994
O 12.9938 2.76838 4.67615 0 0 0 -1.03106 77.3729 1.53074 15.9994
O 10.5349 1.97087 4.63478 0 0 0 -1.7857 -75.9926 -12.2084 15.9994
O 12.2226 0.62078 6.13969 0 0 0 -17.1859 -57.5134 -37.3306 15.9994
O 13.8982 1.13457 14.444 0 0 0 67.642 -51.6097 12.6808 15.9994
O 9.24771 1.58125 13.9667 0 0 0 70.4316 -14.0541 -45.391 15.9994
O 10.6673 2.21063 16.1273 0 0 0 11.6794 -89.0444 -17.1312 15.9994
O 8.04844 2.65451 16.0182 0 0 0 -9.49672 -40.7309 -21.4806 15.9994
O 9.84158 2.14595 11.093 0 0 0 -12.7701 -55.8707 53.7605 15.9994
O 11.8452 1.89441 12.951 0 0 0 -22.2076 47.3243 59.1004 15.9994
O 9.43019 3.4516 2.66787 0 0 0 -61.3189 23.4836 -37.95 15.9994
O 11.3276 3.50469 0.72949 0 0 0 61.9212 56.6368 -13.8837 15.9994
O 6.59869 5.75792 1.92421 0 0 0 73.6638 28.2769 -14.7303 15.9994
O 10.8072 7.15923 16.1274 0 0 0 -10.6137 47.1443 15.3549 15.9994
O 9.45692 5.28966 0.79886 0 0 0 -79.6073 -21.3684 14.2496 15.9994
O 9.46984 3.42715 8.69548 0 0 0 -55.5984 57.153 -32.5482 15.9994
O 11.522 3.00944 6.93641 0 0 0 43.736 -4.51828 68.6762 15.9994
O 9.64801 4.12951 14.5675 0 0 0 -64.9236 49.933 39.0739 15.9994
O 10.9195 4.26473 12.2098 0 0 0 10.0937 50.5397 -74.8286 15.9994
O 11.8173 5.62621 14.2472 0 0 0 41.9537 -26.9099 -5.26378 15.9994
O 6.45465 5.97822 14.2332 0 0 0 72.3592 -20.1215 -31.0587 15.9994
O 8.154 6.71562 16.0517 0 0 0 7.08031 -81.5684 1.3081 15.9994
O 5.66522 7.75558 16.1622 0 0 0 1.09071 69.1018 -12.9379 15.9994
O 9.51308 6.36768 13.1628 0 0 0 -49.8742 44.5462 43.2873 15.9994
O 3.70359 9.8957 3.25144 0 0 0 -9.4144 -60.5042 60.8404 15.9994
O 4.66596 12.328 2.56169 0 0 0 -16.6439 -47.9125 -62.5528 15.9994
O 3.01105 12.0983 4.63024 0 0 0 9.24484 96.3159 -4.75933 15.9994
O 7.70075 12.3131 15.7173 0 0 0 -30.1894 69.3576 -27.292 15.9994
O 6.3388 13.0605 0.58115 0 0 0 59.0682 34.5874 -23.246 15.9994
O 3.87932 10.7551 8.26409 0 0 0 63.8489 -12.5557 -60.3537 15.9994
O 4.49701 13.246 8.73044 0 0 0 -31.3993 71.2609 26.8355 15.9994
O 2.74935 11.9924 10.371 0 0 0 -20.8386 76.5396 -22.6128 15.9994
O 8.02211 11.9462 5.09016 0 0 0 -5.16319 77.215 6.9573 15.9994
O 5.49482 11.1131 4.72551 0 0 0 -1.8659 -57.0232 1.63406 15.9994
O 7.07757 9.78002 6.28344 0 0 0 -17.3475 -63.6588 -13.3377 15.9994
O 6.24909 12.1895 7.03406 0 0 0 18.7048 -40.515 83.4003 15.9994
O 7.22346 8.61022 14.4094 0 0 0 -6.74118 42.8503 50.3157 15.9994
O 8.43585 8.69251 12.1415 0 0 0 -7.90051 30.3743 -86.9109 15.9994
O 8.68306 10.7979 13.7365 0 0 0 60.6912 9.62551 -60.6779 15.9994
O 3.63357 10.5755 14.5097 0 0 0 85.2784 -35.3981 3.69668 15.9994
O 5.10522 11.8224 16.2908 0 0 0 -13.4503 -57.9732 56.2118 15.9994
O 3.96928 13.2472 14.4146 0 0 0 -71.5275 40.6121 -2.57197 15.9994
O 2.39696 12.2465 16.1421 0 0 0 -55.8739 39.8071 -34.4614 15.9994
O 5.26069 11.3212 10.4357 0 0 0 33.2048 -68.1175 -29.2543 15.9994
O 6.38823 10.4192 12.6005 0 0 0 -64.6336 -25.868 23.1255 15.9994
O 5.56879 13.0622 12.3985 0 0 0 -26.8563 24.3208 -58.1296 15.9994
H 3.88519 0.82094 2.98266 0 0 0 3.06008 -4.95683 0.434956 1.00794
H 4.35255 0.73028 1.27224 0 0 0 -4.59989 3.04375 -6.88138 1.00794
H -3.10337 12.7772 2.30532 0 0 0 -11.206 -5.94625 -2.21055 1.00794
H -5.56149 11.4258 8.42012 0 0 0 -0.0480333 -0.2193 -10.8817 1.00794
H -6.50116 11.9672 7.00669 0 0 0 17.9786 1.01907 24.7044 1.00794
H 8.62019 12.528 8.62178 0 0 0 9.73373 2.47618 -21.0367 1.00794
H 2.2506 1.84746 3.62379 0 0 0 -11.0718 4.99176 3.07817 1.00794
H 3.29192 2.85364 4.63388 0 0 0 -86.0841 -28.9352 -10.9298 1.00794
H 1.91528 3.57693 3.76709 0 0 0 -3.79936 1.83939 2.53961 1.00794
H 13.3218 3.99557 13.6537 0 0 0 1.86255 -9.47306 -6.01697 1.00794
H -0.48704 3.82665 13.3523 0 0 0 -23.4577 -4.61654 3.23358 1.00794
H -1.08664 4.8615 14.6791 0 0 0 -0.694373 -1.35407 5.63252 1.00794
H -0.05371 1.70063 10.2035 0 0 0 35.412 4.65625 19.7861 1.00794
H -0.42695 3.172 11.1172 0 0 0 18.8533 1.53571 12.2048 1.00794
H -0.46276 1.59723 11.9366 0 0 0 -0.260232 -1.51663 5.77381 1.00794
H 2.9449 4.00773 13.1129 0 0 0 -13.7399 -14.1962 -15.1486 1.00794
H 1.56258 3.25427 13.9485 0 0 0 1.60696 -9.19911 1.05336 1.00794
H 1.31195 4.49995 12.7159 0 0 0 6.5682 -27.0797 -8.53299 1.00794
H -2.92252 7.33331 1.44774 0 0 0 -0.639804 -10.3743 -5.90391 1.00794
H -1.44607 8.31457 1.45703 0 0 0 6.25839 -6.74978 -9.82236 1.00794
H -1.50768 6.77449 2.33743 0 0 0 -12.2306 -15.8334 -17.608 1.00794
H -1.01862 4.04423 9.19838 0 0 0 20.1735 8.95207 -32.4588 1.00794
H -0.56543 5.74862 9.45563 0 0 0 -1.28693 6.34223 -1.33098 1.00794
H 0.68652 4.48627 9.42204 0 0 0 3.96212 -0.989823 -0.141451 1.00794
H -2.37276 4.68963 6.55554 0 0 0 7.40355 1.54989 -0.761336 1.00794
H -1.47742 5.21084 5.13864 0 0 0 -5.09367 -10.4006 -4.76091 1.00794
H -1.9328 6.40279 6.37816 0 0 0 8.65153 -3.13861 -3.37335 1.00794
H 0.86129 7.32521 6.9332 0 0 0 39.5071 -86.4177 -18.8176 1.00794
H 1.8927 6.18686 6.06832 0 0 0 -9.02754 -6.67166 -1.27733 1.00794
H 1.98488 6.28053 7.8321 0 0 0 2.67714 -4.05386 6.14318 1.00794
H -5.11615 9.83163 3.06361 0 0 0 6.04261 2.01315 1.3761 1.00794
H 8.67025 9.7558 2.83716 0 0 0 2.40285 2.17832 15.1961 1.00794
H 9.37829 9.31563 4.39928 0 0 0 -3.44647 5.05173 -7.63406 1.00794
H -3.76966 9.02099 16.9944 0 0 0 2.08728 15.1262 0.483521 1.00794
H -3.76164 9.29129 1.36214 0 0 0 -4.79609 7.91716 1.48368 1.00794
H -2.54404 9.60783 0.11652 0 0 0 -2.14688 4.89733 -4.99472 1.00794
H -2.8145 12.51 15.4235 0 0 0 -12.9437 -2.83961 8.28398 1.00794
H -2.34568 12.8246 17.1055 0 0 0 1.69875 -1.1226 6.20926 1.00794
H -3.71071 13.6816 16.393 0 0 0 -9.38464 -14.5218 7.59734 1.00794
H -3.63135 8.20338 8.96647 0 0 0 87.7219 9.30878 -75.9346 1.00794
H -2.07137 7.51432 8.5493 0 0 0 3.18319 -3.23849 2.17622 1.00794
H -3.35429 7.57903 7.31871 0 0 0 -3.2666 6.27945 -8.96699 1.00794
H -1.13486 8.54332 5.87356 0 0 0 -9.47181 0.877159 7.6858 1.00794
H -0.003 8.85056 7.19248 0 0 0 -55.8539 78.3381 7.29009 1.00794
H -0.33311 10.1153 6.01855 0 0 0 -24.9759 -24.3699 31.2266 1.00794
H -0.75743 6.96173 12.9857 0 0 0 -0.951008 -1.92319 7.36175 1.00794
H -0.24108 8.30671 11.9335 0 0 0 2.67679 6.53642 -0.606889 1.00794
H -1.73517 7.41293 11.5699 0 0 0 -4.37787 -0.735344 -3.6035 1.00794
H -1.90436 10.6559 15.1445 0 0 0 0.725066 -8.36608 -1.69022 1.00794
H -0.3044 10.4355 14.3976 0 0 0 2.81942 -1.05129 -12.2043 1.00794
H -0.90884 9.24196 15.5483 0 0 0 -12.329 -2.92483 -8.7706 1.00794
H -5.40402 10.6841 11.4163 0 0 0 4.75595 -5.35862 9.81299 1.00794
H -4.38734 10.6132 9.95342 0 0 0 6.28767 -5.30678 0.479322 1.00794
H -5.1085 12.167 10.4529 0 0 0 9.32053 8.17735 6.10891 1.00794
H 4.73093 1.5355 5.67792 0 0 0 3.34409 12.8516 -1.68233 1.00794
H 5.76846 1.18339 4.28756 0 0 0 5.84795 1.48922 -2.81369 1.00794
H 5.12578 2.81546 4.48784 0 0 0 52.1127 -35.5746 26.2206 1.00794
H -0.82083 13.8241 15.3288 0 0 0 3.65368 1.83294 0.298395 1.00794
H 0.2594 12.4108 15.1545 0 0 0 5.02768 7.49527 -14.5741 1.00794
H -1.19071 12.5815 14.1263 0 0 0 6.31999 0.194685 -10.8084 1.00794
H 5.20575 2.68311 2.50308 0 0 0 10.589 -0.537636 -18.5651 1.00794
H 3.83983 3.10766 1.45296 0 0 0 -3.41786 -4.04719 -0.681174 1.00794
H 4.01428 3.92124 2.99411 0 0 0 5.72991 10.7779 -16.2061 1.00794
H 3.89602 6.12543 2.96618 0 0 0 -5.79321 8.54054 3.24581 1.00794
H 3.09116 5.40184 4.37501 0 0 0 -11.238 4.30786 -6.87224 1.00794
H 3.54608 7.11887 4.3824 0 0 0 -2.76413 -7.25947 -32.484 1.00794
H -0.01487 6.57789 4.88525 0 0 0 17.2357 14.4885 -28.8202 1.00794
H -0.58473 7.75898 3.70854 0 0 0 16.4769 -13.3931 27.5865 1.00794
H 0.74589 8.1823 4.79619 0 0 0 9.96965 3.58452 -4.12384 1.00794
H 2.99554 4.34179 7.24277 0 0 0 0.541958 -5.25706 3.35423 1.00794
H 3.97501 4.14916 5.78538 0 0 0 22.0594 24.1108 36.9368 1.00794
H 3.98142 5.69319 6.64541 0 0 0 3.84297 -8.57569 12.2302 1.00794
H 5.65619 6.14071 9.01159 0 0 0 3.58408 -18.3557 -2.05514 1.00794
H 6.26439 4.81015 9.98836 0 0 0 -14.0868 -7.07513 -18.2427 1.00794
H 4.5121 5.09121 9.86889 0 0 0 -2.41968 0.980129 2.36702 1.00794
H 1.74318 5.2031 15.7003 0 0 0 -0.172486 -1.06354 4.68031 1.00794
H 2.58263 5.82735 14.2803 0 0 0 4.50937 11.6906 7.01205 1.00794
H 0.80283 5.75328 14.3045 0 0 0 -3.00947 15.2633 5.43263 1.00794
H 2.20389 5.85144 10.6288 0 0 0 4.12777 -2.84778 -3.96501 1.00794
H 1.59509 7.5087 10.8484 0 0 0 -3.58107 -12.2094 16.6736 1.00794
H 1.45966 6.34496 12.163 0 0 0 1.18873 27.3609 -4.83519 1.00794
H 4.61922 7.69744 9.72326 0 0 0 -14.3513 10.7278 13.8559 1.00794
H 5.9288 7.70998 10.9236 0 0 0 -0.22155 -5.32955 10.21 1.00794
H 4.79151 9.06201 10.847 0 0 0 -6.66497 -2.52813 2.06297 1.00794
H -0.75369 9.54386 2.96263 0 0 0 9.77197 27.4959 4.98345 1.00794
H -2.32121 10.3001 2.59956 0 0 0 -2.64504 5.5766 3.05684 1.00794
H -2.04992 9.53524 4.17697 0 0 0 -7.12825 2.28358 2.27999 1.00794
H -0.54445 10.6065 1.21653 0 0 0 5.76153 6.33809 -18.285 1.00794
H 0.224644 9.99507 17.1569 0 0 0 9.53635 1.5901 5.6997 1.00794
H -0.62178 11.5187 16.7812 0 0 0 0.780027 2.1178 9.16096 1.00794
H 1.33285 8.08339 8.78949 0 0 0 1.71858 6.20402 7.5503 1.00794
H 0.91761 9.78912 9.01928 0 0 0 5.64287 -3.92407 -13.3156 1.00794
H 2.29987 9.10607 9.86149 0 0 0 9.34713 11.6279 -4.94399 1.00794
H 4.36834 7.63138 7.69608 0 0 0 -32.3611 10.9633 2.9178 1.00794
H 4.86985 8.73673 6.38514 0 0 0 -2.72516 4.29603 -5.13728 1.00794
H 3.44062 7.69048 6.18715 0 0 0 -1.99586 22.0735 28.8906 1.00794
H 14.2909 2.22136 7.21889 0 0 0 -10.9175 1.15791 0.908004 1.00794
H -0.23383 0.97707 7.93015 0 0 0 -9.01904 -4.79152 6.53801 1.00794
H 14.0872 1.80407 8.91466 0 0 0 6.66642 -10.7531 -56.5494 1.00794
H 12.1076 2.64683 9.37368 0 0 0 -1.85759 -11.2645 8.16858 1.00794
H 13.0095 1.66755 10.5308 0 0 0 -11.8978 -8.10776 19.3667 1.00794
H 13.26 3.42936 10.4838 0 0 0 -39.5941 -0.441841 23.9884 1.00794
H 11.4652 6.34937 2.93992 0 0 0 -6.28016 4.50394 -0.260668 1.00794
H 12.6374 5.06539 2.53608 0 0 0 2.84889 -5.12869 -2.26747 1.00794
H 11.5301 4.86094 3.88896 0 0 0 -0.113148 -4.6381 2.28015 1.00794
H 9.3448 7.06583 2.90955 0 0 0 -5.40543 -8.0904 14.6852 1.00794
H 9.20987 5.53593 3.81521 0 0 0 -15.2322 5.09064 10.8543 1.00794
H 8.95527 7.07438 4.62899 0 0 0 0.129538 -1.36956 -6.46184 1.00794
H 6.64519 8.84679 2.67558 0 0 0 8.09245 -36.6772 24.8504 1.00794
H 6.72307 8.62599 4.43132 0 0 0 -0.93475 -9.60482 -13.5541 1.00794
H 5.24556 8.24129 3.55705 0 0 0 6.04766 -14.2124 3.55398 1.00794
H 5.58335 4.64193 4.24234 0 0 0 15.2029 37.3208 -2.74558 1.00794
H 5.44637 6.07567 5.26493 0 0 0 8.33123 12.3134 -8.66316 1.00794
H 6.86569 5.03653 5.38873 0 0 0 4.77213 12.0919 -18.337 1.00794
H 9.16731 9.3682 17.2359 0 0 0 -3.19919 -8.98229 -4.12621 1.00794
H 9.86059 8.2825 1.38763 0 0 0 4.73897 -0.437201 -8.1001 1.00794
H 8.10483 8.06695 1.26794 0 0 0 2.48149 -10.8534 -3.39254 1.00794
H 10.7322 5.57892 5.82072 0 0 0 2.6201 2.41601 0.350268 1.00794
H 9.48967 6.14609 6.93792 0 0 0 17.601 -8.32874 3.8538 1.00794
H 9.14506 4.767 5.87506 0 0 0 3.04638 0.893953 9.89299 1.00794
H 11.2395 6.19709 8.8276 0 0 0 -11.8581 -11.7835 3.45106 1.00794
H 12.7009 5.22191 8.69575 0 0 0 -1.99607 -3.58755 -5.14793 1.00794
H 11.5083 4.8896 9.9707 0 0 0 -5.97721 9.60256 -6.31148 1.00794
H 10.6362 8.36634 10.1625 0 0 0 -78.8162 9.58954 68.2825 1.00794
H 11.5552 7.02758 10.908 0 0 0 1.13784 -6.52121 8.00013 1.00794
H -4.1939 8.58634 11.7571 0 0 0 -13.641 -6.52297 -1.74176 1.00794
H 7.46188 5.7799 11.2379 0 0 0 9.09561 10.5006 17.1968 1.00794
H 8.85763 5.48571 10.1944 0 0 0 7.11632 -0.424544 0.318309 1.00794
H 7.79483 6.87813 9.88067 0 0 0 3.99983 10.7922 16.4764 1.00794
H 7.85043 10.4483 1.1591 0 0 0 -4.70841 14.3957 -12.4535 1.00794
H 6.71462 9.35133 0.30359 0 0 0 -8.15491 0.501723 -13.6711 1.00794
H 6.13205 10.3688 1.62912 0 0 0 -9.86475 25.2378 -12.3894 1.00794
H 7.6738 6.43886 7.9416 0 0 0 -1.31368 -1.98692 -7.64353 1.00794
H 7.51681 6.76847 6.22271 0 0 0 7.49601 21.1285 13.6334 1.00794
H 6.16561 7.11102 7.2921 0 0 0 35.7951 -3.36909 -12.6611 1.00794
H 10.207 9.77882 6.9616 0 0 0 -15.5151 2.20633 -1.7189 1.00794
H 9.93883 8.2673 6.07274 0 0 0 1.75619 -2.44444 7.48353 1.00794
H 10.1832 8.23577 7.8141 0 0 0 -20.3577 0.877319 -1.46823 1.00794
H 7.4282 10.6764 8.93826 0 0 0 -5.56375 -1.045 -8.14614 1.00794
H 8.44221 9.46573 9.75353 0 0 0 8.13415 -5.1074 -4.82181 1.00794
H 6.70287 9.1932 9.54109 0 0 0 2.88393 0.842544 -10.5594 1.00794
H 7.65062 13.1147 10.2549 0 0 0 -12.6955 -3.121 10.3527 1.00794
H 8.43362 11.5589 10.5917 0 0 0 -19.8695 -1.68149 6.1806 1.00794
H 8.44618 12.8464 11.8125 0 0 0 -1.21024 -1.6393 9.37249 1.00794
366
Timestep=55 Time=55.000000 pbc="T T T" Lattice="15.5462 0 0 -7.58397 13.466 0 0.177804 0.437127 17.2465" Potential_energy=581.1848716007312 Temperature=0 Stress="20137.750783669322 -2648.166334709588 -4560.617068192353 -2648.166334709588 7363.461876976804 -3192.8713118624296 -4560.617068192353 -3192.8713118624296 12239.201881851503" Properties=species:S:1:pos:R:3:vel:R:3:forces:R:3:mass:R:1
Si -5.57832 13.1062 1.53187 0 0 0 -0.174916 0.0702617 -0.0394438 28.0855
Si 14.2052 2.38456 3.84343 0 0 0 -0.0211203 -0.31753 -0.768328 28.0855
Si 1.49789 2.35827 16.9252 0 0 0 -0.423892 -0.627107 -0.030894 28.0855
Si -4.78248 13.5917 7.84597 0 0 0 -32.3129 -16.7705 10.6457 28.0855
Si 1.05652 2.39199 5.8949 0 0 0 -33.114 -16.3477 10.6129 28.0855
Si 2.93421 0.451221 13.5656 0 0 0 -0.565248 -0.825593 0.201775 28.0855
Si 14.392 2.43218 15.1976 0 0 0 -0.610398 -0.193302 0.195357 28.0855
Si 1.85388 2.37978 11.4928 0 0 0 0.0714087 0.251019 0.449819 28.0855
Si 0.154418 4.14983 1.54056 0 0 0 0.467871 -0.689396 -0.00569353 28.0855
Si -0.966144 6.71554 17.0464 0 0 0 -0.628744 -0.933329 -0.117106 28.0855
Si 0.0129077 5.04731 7.18873 0 0 0 -0.0839 -0.237585 0.875331 28.0855
Si -3.49723 6.906 15.1487 0 0 0 -0.226886 -0.150663 -0.41986 28.0855
Si -6.02663 12.1474 4.22837 0 0 0 -0.824426 0.130443 0.281659 28.0855
Si -4.47593 11.4644 17.0032 0 0 0 0.788216 -0.00824853 0.563831 28.0855
Si -2.37461 9.99185 7.62218 0 0 0 -0.312399 0.153424 -0.492515 28.0855
Si -3.25686 12.1854 5.78176 0 0 0 0.036201 0.891383 -0.556031 28.0855
Si -2.23651 9.03888 13.4805 0 0 0 -0.146411 0.412922 -0.438482 28.0855
Si 8.85859 12.0236 14.8862 0 0 0 0.883246 -0.642544 0.308377 28.0855
Si -3.20857 11.6881 12.0427 0 0 0 -0.809177 0.824491 0.420071 28.0855
Si 7.55674 0.174764 1.9185 0 0 0 -0.957997 0.225802 0.027082 28.0855
Si 6.83799 2.65605 17.0571 0 0 0 -0.621217 -0.367292 -0.338649 28.0855
Si 0.549304 13.5311 7.68791 0 0 0 -0.766283 -0.141012 0.685003 28.0855
Si 4.05173 1.93877 9.84812 0 0 0 0.260672 1.6198 -0.135424 28.0855
Si 7.17141 2.392 5.83125 0 0 0 -0.11985 -0.197356 0.145437 28.0855
Si 8.25013 0.355695 13.2973 0 0 0 -0.144058 0.164695 -0.137171 28.0855
Si 4.30119 2.78193 15.3831 0 0 0 -0.870512 -1.15197 -1.22799 28.0855
Si 6.55085 2.25689 11.6308 0 0 0 -1.0811 -0.798699 -0.332663 28.0855
Si 5.55263 4.85881 0.933972 0 0 0 0.117103 0.198715 0.0424275 28.0855
Si 1.65071 6.73238 2.66576 0 0 0 0.382957 -0.474051 0.0937994 28.0855
Si 4.52318 7.85225 17.0773 0 0 0 0.467915 0.882191 -0.245682 28.0855
Si 5.50466 3.74382 7.9689 0 0 0 0.157606 0.477612 -0.0666925 28.0855
Si 5.71826 4.88194 13.4524 0 0 0 -0.117917 -1.04853 -0.466909 28.0855
Si 1.73566 7.72826 15.7271 0 0 0 0.198594 0.270658 -0.0647022 28.0855
Si 3.85674 6.93064 12.0723 0 0 0 0.114635 -0.34988 -0.163828 28.0855
Si 3.20799 9.32938 1.96844 0 0 0 -0.100088 -0.827969 0.0252894 28.0855
Si -0.897363 11.5899 3.92091 0 0 0 -0.0854259 0.225603 -0.168064 28.0855
Si 1.51317 11.3892 0.370596 0 0 0 -0.0555862 0.33708 0.949643 28.0855
Si 3.0339 9.57924 7.41374 0 0 0 -0.196429 -0.417785 -0.0542816 28.0855
Si -1.23305 11.9635 9.83908 0 0 0 -0.938218 0.315876 0.0922367 28.0855
Si 1.84033 11.4943 5.60944 0 0 0 0.304925 -0.304178 -0.258636 28.0855
Si 2.80435 9.40183 13.4638 0 0 0 1.48388 -0.112199 1.07739 28.0855
Si 1.58822 11.4814 11.3818 0 0 0 0.0605403 -0.747095 0.190459 28.0855
Si 12.7408 0.292812 1.75548 0 0 0 -0.083939 0.124384 -0.150137 28.0855
Si 9.16483 2.08123 3.65767 0 0 0 -0.118295 -0.373142 -0.63566 28.0855
Si 11.9278 2.77132 17.0342 0 0 0 -1.10537 -0.191356 -0.46963 28.0855
Si 5.53748 13.4875 7.423 0 0 0 0.578789 -0.905445 -0.248533 28.0855
Si 8.96451 2.23673 9.66118 0 0 0 -1.17474 -0.00268328 0.179248 28.0855
Si 11.7219 1.99319 5.61037 0 0 0 0.193442 -0.715559 -1.05694 28.0855
Si 12.4092 0.611262 13.6541 0 0 0 -0.113724 -0.552757 0.460074 28.0855
Si 9.38487 2.63298 15.2255 0 0 0 -0.895051 0.198209 0.270942 28.0855
Si 11.0606 2.81128 11.8326 0 0 0 -0.0596962 -0.721871 0.70019 28.0855
Si 10.2994 4.16968 1.54397 0 0 0 0.147621 0.433399 -0.38005 28.0855
Si 6.90809 6.47279 3.2812 0 0 0 0.00881894 0.712607 0.171878 28.0855
Si 9.40327 6.81113 17.0337 0 0 0 -0.543971 -0.0733678 -0.50532 28.0855
Si 10.5985 4.03636 7.76254 0 0 0 0.0898575 -0.631763 -0.0578593 28.0855
Si 10.1729 5.16497 13.6371 0 0 0 -0.48905 -0.288183 0.531053 28.0855
Si 7.0141 7.37508 15.0823 0 0 0 -0.498526 0.127829 -0.871384 28.0855
Si 9.12018 7.42403 11.891 0 0 0 0.0150076 -0.011307 0.158818 28.0855
Si 4.34068 11.5089 3.87829 0 0 0 0.0279376 -0.240131 -0.728889 28.0855
Si 6.32853 12.1579 16.8498 0 0 0 0.470275 0.43176 0.0840728 28.0855
Si 7.92664 8.95673 7.25551 0 0 0 0.234302 -0.578992 0.801976 28.0855
Si 3.946 11.835 9.3204 0 0 0 0.304402 -0.755353 0.282218 28.0855
Si 6.9585 11.4449 5.69579 0 0 0 -0.246368 -1.2305 -0.482512 28.0855
Si 7.70385 9.79481 13.2378 0 0 0 -0.0825974 0.106105 0.0107105 28.0855
Si 3.66301 11.7606 15.3636 0 0 0 -0.502542 0.407327 0.897894 28.0855
Si 5.82278 11.7689 11.7769 0 0 0 0.209896 -0.0101891 0.320823 28.0855
C 3.60535 0.461224 1.97609 0 0 0 -0.204447 -0.166618 0.272477 12.0107
C -5.86068 12.1162 8.00724 0 0 0 -0.319738 0.0756651 -0.105949 12.0107
C 2.05112 2.97757 4.47334 0 0 0 -0.442623 0.508986 -0.0991913 12.0107
C -1.36282 3.85489 14.0437 0 0 0 -0.602275 -0.0752456 -0.358049 12.0107
C 0.125144 2.27939 11.0695 0 0 0 0.457092 -0.140086 -0.783185 12.0107
C 1.94055 3.63736 12.7887 0 0 0 -0.810207 0.523865 0.237615 12.0107
C -2.08322 7.01702 1.20278 0 0 0 -0.410087 0.304927 -0.00622434 12.0107
C -0.378489 5.21416 8.98603 0 0 0 -0.0297275 -0.30217 0.392772 12.0107