346
Timestep=0 Time=0.000000 pbc="T T T" Lattice="17.0761 0 0 -8.04072 13.9806 0 0.858085 -2.73952 17.2462" Potential_energy=622.7312939791132 Temperature=0 Stress="46677.66372397212 -1962.5255257749022 -3347.914071625055 -1962.5255257749022 45139.450557932454 1870.286467705789 -3347.914071625055 1870.286467705789 43522.03502939494" Properties=species:S:1:pos:R:3:vel:R:3:forces:R:3:mass:R:1
Si 1.66917 1.21527 0.12222 0 0 0 -41.9132 -36.9812 -13.9096 28.0855
Si 3.54468 0.52383 5.62853 0 0 0 -26.7599 -18.1977 21.7853 28.0855
Si 0.54566 0.88799 9.33866 0 0 0 29.6691 -49.6222 -1.64839 28.0855
Si -1.78247 7.14327 5.07986 0 0 0 3.58186 59.0101 52.2337 28.0855
Si -0.0465 6.14309 0.98683 0 0 0 -6.95182 -24.8401 30.2987 28.0855
Si 1.73329 3.37652 7.72073 0 0 0 85.148 -13.5202 -34.1054 28.0855
Si -2.81403 4.40119 8.0765 0 0 0 5.46849 31.1543 14.1758 28.0855
Si 0.77634 6.09556 6.51973 0 0 0 36.711 40.1446 5.44922 28.0855
Si 1.6491 1.11998 13.8354 0 0 0 -28.5608 29.8987 -7.33967 28.0855
Si 11.8573 4.3069 14.2256 0 0 0 30.14 -26.9472 -12.5961 28.0855
Si -1.0408 8.56662 2.40782 0 0 0 -0.584294 28.4334 38.5762 28.0855
Si -6.26748 11.3761 2.8937 0 0 0 -12.4924 40.8196 -25.6654 28.0855
Si -3.02475 10.1672 0.48426 0 0 0 -37.4117 10.058 4.24823 28.0855
Si -3.23043 10.4419 7.64819 0 0 0 36.5912 5.43223 -6.07958 28.0855
Si 10.0025 8.73187 9.93064 0 0 0 -26.8742 101.585 11.9739 28.0855
Si -3.88355 11.5463 4.88793 0 0 0 7.01867 50.5494 22.8802 28.0855
Si 0.87463 5.33629 13.8446 0 0 0 -10.2737 -2.43878 -43.3342 28.0855
Si 10.0715 8.73238 14.8963 0 0 0 -4.03914 -3.51109 16.8129 28.0855
Si -4.59859 9.06793 11.8103 0 0 0 2.46283 52.0032 13.6286 28.0855
Si 7.87733 -0.0735 2.56794 0 0 0 52.0609 -0.863403 -8.45043 28.0855
Si 7.65243 -1.48418 17.2305 0 0 0 26.6953 57.5384 32.7502 28.0855
Si 5.0595 -1.79624 15.5351 0 0 0 9.6555 -39.641 -1.48212 28.0855
Si 6.27654 4.06523 1.24678 0 0 0 7.20504 -10.3311 30.4691 28.0855
Si 4.24115 8.80546 1.04679 0 0 0 -71.7835 -4.69097 -32.1402 28.0855
Si 6.23252 0.11018 13.2852 0 0 0 39.1959 -17.9217 -5.33402 28.0855
Si 3.09344 2.58447 16.2355 0 0 0 27.9815 13.9535 39.1851 28.0855
Si 3.89136 10.9404 3.20146 0 0 0 -10.8533 -3.39524 28.3877 28.0855
Si -0.88628 11.1697 4.00556 0 0 0 -15.1907 46.5402 13.492 28.0855
Si 2.06555 12.3987 1.20161 0 0 0 7.47088 -9.58935 -3.97583 28.0855
Si 0.69467 12.1729 6.5878 0 0 0 6.26051 46.2213 2.24386 28.0855
Si -0.84815 7.69754 14.8703 0 0 0 -42.5335 -34.9602 -66.4313 28.0855
Si 13.5667 2.20958 2.81444 0 0 0 64.8099 28.9395 -17.3834 28.0855
Si 8.9689 2.21448 4.29114 0 0 0 17.0798 12.4731 -29.2918 28.0855
Si 11.9486 2.78549 0.17698 0 0 0 14.9486 33.3411 -24.3244 28.0855
Si 16.0964 -0.94993 7.39035 0 0 0 -78.5152 42.7396 -47.3236 28.0855
Si 10.3712 -0.95824 15.8242 0 0 0 9.33055 44.3196 -22.4824 28.0855
Si 14.9008 0.66546 11.0017 0 0 0 -0.261854 -28.5076 -9.58243 28.0855
Si 10.7357 5.47828 1.32137 0 0 0 -18.7721 5.75217 38.7808 28.0855
Si 7.30915 7.27623 3.31627 0 0 0 17.0407 -56.0739 -20.6708 28.0855
Si 9.89722 4.54389 16.6807 0 0 0 -4.97018 5.62962 37.5584 28.0855
Si 10.9354 2.35616 11.9236 0 0 0 -5.06351 -11.4996 -35.5624 28.0855
Si 6.98076 5.13115 16.0084 0 0 0 -25.7814 -21.8548 -40.8496 28.0855
Si 11.5102 4.22835 9.50597 0 0 0 -53.0566 47.1899 27.5643 28.0855
Si 8.73535 9.54034 1.65839 0 0 0 4.38254 -42.5246 -24.0959 28.0855
Si 13.6403 -0.58448 4.28697 0 0 0 6.42479 -41.4266 72.0124 28.0855
Si 7.21753 11.8623 0.09365 0 0 0 -20.5819 -47.762 -3.37381 28.0855
Si 9.42315 7.20154 7.24817 0 0 0 -28.9349 20.5161 -8.24369 28.0855
Si 6.09519 10.721 8.11876 0 0 0 -10.2891 -20.1872 -44.558 28.0855
Si 8.33329 12.0845 4.54525 0 0 0 -51.1466 -65.0814 21.2149 28.0855
Si 8.00861 6.82264 13.631 0 0 0 -1.92506 -16.094 -10.3594 28.0855
Si 7.51513 9.11794 11.8536 0 0 0 7.15899 70.3288 2.62855 28.0855
C 1.89959 1.24214 1.96737 0 0 0 1.03701 -2.13365 6.02748 12.0107
C 4.93761 1.70922 6.01229 0 0 0 -0.274118 1.48937 -1.2175 12.0107
C 0.52835 4.9157 2.26632 0 0 0 -2.93838 -6.18067 3.03235 12.0107
C 3.15028 3.95359 8.78491 0 0 0 4.83671 1.91845 4.2349 12.0107
C -1.82933 4.63464 9.65199 0 0 0 5.62064 -1.48682 -1.59956 12.0107
C 14.9267 3.07969 6.93958 0 0 0 8.69179 -0.403792 5.07152 12.0107
C 2.33439 6.23524 5.50415 0 0 0 6.86409 4.7907 -1.25751 12.0107
C -0.03983 1.10877 14.6353 0 0 0 2.82575 -3.13715 0.513996 12.0107
C 2.015 -0.62273 13.2622 0 0 0 -3.6769 -2.71676 -3.97036 12.0107
C 1.84743 2.34784 12.4187 0 0 0 -2.34018 -4.73252 0.414568 12.0107
C 13.3565 3.67445 15.1278 0 0 0 7.76496 3.71999 1.75597 12.0107
C -1.79886 5.81518 0.45537 0 0 0 -7.69008 -7.21238 -1.11435 12.0107
C -3.70981 8.66316 7.94452 0 0 0 0.726508 -6.63206 -1.25224 12.0107
C 0.61858 7.42594 7.81286 0 0 0 3.36915 6.07832 4.34627 12.0107
C -3.40982 11.6134 9.09736 0 0 0 2.42987 -1.01762 4.28287 12.0107
C 10.0668 10.4788 9.32038 0 0 0 -0.775372 10.0515 -6.65154 12.0107
C 12.3446 5.68103 13.0838 0 0 0 7.36678 3.23886 -2.94953 12.0107
C 11.5484 8.14585 15.8518 0 0 0 -0.0900041 -0.817786 6.1723 12.0107
C -2.87206 8.55651 11.3045 0 0 0 0.590145 -4.4688 5.47055 12.0107
C -3.49685 10.6068 14.7324 0 0 0 -4.26998 -2.64638 -6.11768 12.0107
C 4.93468 3.62707 2.47179 0 0 0 -3.28975 -1.19187 -1.73713 12.0107
C 3.50397 7.30547 1.85274 0 0 0 -3.88195 -5.84651 0.487066 12.0107
C 7.62101 -1.08427 12.8438 0 0 0 -1.39558 0.0782402 -1.65468 12.0107
C 5.30019 0.48673 11.7016 0 0 0 3.8831 4.56732 -2.35911 12.0107
C 3.42426 10.18 4.82434 0 0 0 -4.7035 -0.650466 6.26846 12.0107
C 3.55755 12.9701 0.27308 0 0 0 6.0077 -1.40565 -7.66562 12.0107
C 1.1245 11.0404 8.01073 0 0 0 1.37639 4.41345 5.47767 12.0107
C 7.61965 -0.4387 7.1929 0 0 0 -0.871029 -0.409807 3.29919 12.0107
C -0.03961 9.20882 14.1494 0 0 0 4.47734 4.14251 -4.17407 12.0107
C 0.87762 11.4697 0.12293 0 0 0 -2.58594 -1.22071 -8.47067 12.0107
C 13.1745 3.78001 3.71571 0 0 0 -0.885413 9.52515 -0.0366092 12.0107
C 10.2681 1.71929 5.53914 0 0 0 3.76371 3.42392 2.82579 12.0107
C 7.89208 3.54184 5.04459 0 0 0 5.48194 4.91011 1.96142 12.0107
C 13.9416 -0.05317 15.9614 0 0 0 6.79003 -3.65773 -8.8756 12.0107
C 11.1016 -2.06079 14.4964 0 0 0 3.07971 6.67807 -9.10304 12.0107
C 13.5601 0.59887 9.69837 0 0 0 -6.98029 -0.602002 5.15046 12.0107
C 15.116 -1.02395 11.7819 0 0 0 -4.49311 -3.01854 1.35802 12.0107
C 11.7909 6.89343 1.89354 0 0 0 5.35896 10.6495 4.82558 12.0107
C 6.08921 7.52967 4.69956 0 0 0 -2.97268 -2.83051 0.568282 12.0107
C 9.93487 0.70819 15.1477 0 0 0 -1.94695 9.07006 -5.8944 12.0107
C 9.1954 2.09498 11.3183 0 0 0 -3.58643 -3.99878 -1.96815 12.0107
C 14.5154 1.97763 12.2738 0 0 0 -6.95805 -6.29538 0.409974 12.0107
C 6.68749 1.72514 14.1061 0 0 0 -2.43292 3.59784 1.69133 12.0107
C 7.10351 13.5774 0.78022 0 0 0 -2.62231 5.02838 1.14679 12.0107
C 7.7939 6.33218 7.58968 0 0 0 1.00738 0.132071 -1.6581 12.0107
C 10.6322 6.05706 6.38696 0 0 0 0.108045 -0.345657 -6.48972 12.0107
C 4.59249 11.0473 9.16876 0 0 0 -3.20282 -2.01326 2.99723 12.0107
C 9.27992 8.76432 6.22668 0 0 0 1.05822 3.87751 -3.91467 12.0107
C 8.23721 5.35339 12.5303 0 0 0 -1.46768 -3.54819 -4.85328 12.0107
H 1.53962 -0.481111 16.9565 0 0 0 7.22985 -6.9902 5.20992 1.00794
H -6.04191 11.1334 16.9172 0 0 0 3.28664 8.47595 4.54342 1.00794
H 2.55486 1.13345 4.70176 0 0 0 4.6381 -1.3186 6.00651 1.00794
H 1.74738 0.47705 10.0882 0 0 0 -3.01316 1.99605 0.446876 1.00794
H -1.69391 8.37662 5.90343 0 0 0 -1.52548 -5.93562 -5.20117 1.00794
H 2.20459 2.73677 6.46152 0 0 0 -7.28937 14.8678 12.1859 1.00794
H -5.74885 12.1549 1.75442 0 0 0 0.713333 -3.41288 0.894389 1.00794
H -3.30999 11.3678 1.30673 0 0 0 -0.603121 -5.72528 -0.182861 1.00794
H -2.88635 5.72456 7.39028 0 0 0 0.962611 -11.535 8.2581 1.00794
H -1.80246 10.4856 7.21735 0 0 0 -11.1063 -2.29878 2.64411 1.00794
H 2.84642 0.08024 6.87196 0 0 0 4.59287 3.81184 -5.56138 1.00794
H 0.01144 4.12447 13.8622 0 0 0 3.41506 7.8247 -0.668887 1.00794
H 2.25178 5.01499 14.3068 0 0 0 -6.49125 2.3169 -0.84248 1.00794
H -4.25886 9.47067 0.04294 0 0 0 3.17401 6.80578 0.205994 1.00794
H 10.3502 9.902 14.0181 0 0 0 0.456499 -6.00328 4.78963 1.00794
H 0.94072 5.85514 12.4415 0 0 0 -0.413266 -1.49937 9.25282 1.00794
H -4.82945 8.60116 13.1914 0 0 0 8.23193 4.31145 -18.8644 1.00794
H -4.73277 10.5561 11.7745 0 0 0 1.73126 -8.55833 0.785787 1.00794
H 7.57171 4.30729 1.94209 0 0 0 -7.13561 -1.56971 -2.36946 1.00794
H 3.96434 3.66947 15.7147 0 0 0 -9.37797 -7.808 2.83462 1.00794
H 3.29267 9.45274 0.09861 0 0 0 4.25487 -4.49261 5.67236 1.00794
H 2.93573 4.53291 0.04086 0 0 0 -2.84517 3.92693 -7.04729 1.00794
H -2.0463 7.27944 14.0819 0 0 0 8.9961 5.62059 3.83357 1.00794
H 15.1964 0.12222 6.92937 0 0 0 3.98196 -2.81748 -1.30428 1.00794
H 9.63102 2.70934 3.05009 0 0 0 -3.4673 -3.17833 8.0508 1.00794
H 10.0233 4.82934 2.44982 0 0 0 7.01202 6.6124 -2.22626 1.00794
H -3.06467 6.42242 5.24689 0 0 0 3.95819 2.6882 1.39506 1.00794
H 5.88461 5.25297 0.44516 0 0 0 -0.120389 -4.55824 6.02471 1.00794
H 6.64356 6.53329 2.2132 0 0 0 5.75434 20.2811 12.6082 1.00794
H 8.48974 6.49076 3.78181 0 0 0 -7.89235 4.08945 -2.17959 1.00794
H 11.6023 1.03524 12.0867 0 0 0 -5.06681 6.117 0.609089 1.00794
H 5.98405 4.25073 15.3837 0 0 0 6.34615 5.43012 2.0258 1.00794
H 10.2026 3.90357 8.86753 0 0 0 5.61812 1.50978 4.53391 1.00794
H 13.1973 -0.70237 5.69463 0 0 0 1.70719 -1.72376 -3.30005 1.00794
H 1.95622 12.7722 6.05805 0 0 0 -9.88494 1.26951 5.51943 1.00794
H 15.0057 2.17232 2.42911 0 0 0 -6.20846 3.01968 2.49175 1.00794
H 6.77139 8.50012 17.0329 0 0 0 23.0681 -5.25316 -0.638536 1.00794
H 6.76184 9.45261 8.53234 0 0 0 -5.09289 6.24467 -1.55394 1.00794
H 7.76349 10.7429 4.33577 0 0 0 -0.976939 3.62931 0.561493 1.00794
H 11.5543 5.63003 9.98907 0 0 0 -0.859152 -4.12693 -3.51086 1.00794
H 5.73086 10.6003 6.67575 0 0 0 3.10107 2.33149 10.8558 1.00794
H 6.30108 9.55493 11.1177 0 0 0 7.60961 0.150299 3.33228 1.00794
H 8.11547 10.2438 12.6182 0 0 0 -2.05001 -5.4048 -2.66732 1.00794
H 2.73254 0.58809 2.25992 0 0 0 6.19397 -4.35631 -2.11314 1.00794
H 0.9975 0.88677 2.4864 0 0 0 -7.29045 -1.62937 -1.07088 1.00794
H 2.12016 2.25455 2.32994 0 0 0 0.152531 6.10113 -1.55032 1.00794
H 4.58157 2.74635 6.0621 0 0 0 -5.20293 5.84059 -0.35807 1.00794
H 5.70014 1.64562 5.22411 0 0 0 1.23613 -1.41633 -6.21975 1.00794
H 5.41913 1.466 6.96918 0 0 0 -1.62382 -3.76595 6.95983 1.00794
H 1.59627 5.03579 2.49514 0 0 0 6.4332 3.9934 -2.00727 1.00794
H 0.37024 3.8914 1.89899 0 0 0 -2.42856 -3.96358 -4.4612 1.00794
H -0.03489 5.03039 3.20261 0 0 0 -5.24706 2.49477 2.37936 1.00794
H 3.78497 4.68139 8.25719 0 0 0 0.0450583 3.87066 -6.81984 1.00794
H 3.7875 3.10561 9.07835 0 0 0 0.846216 -7.23239 -0.422867 1.00794
H 2.77514 4.42789 9.70434 0 0 0 -5.45639 2.24385 3.81079 1.00794
H -0.8583 5.09221 9.41594 0 0 0 4.17785 2.30793 -2.54939 1.00794
H -1.62573 3.6819 10.1568 0 0 0 -1.57129 -6.23595 -1.88925 1.00794
H -2.35657 5.29898 10.353 0 0 0 -5.28963 2.14083 0.880908 1.00794
H -1.63412 2.3032 7.5168 0 0 0 0.644709 -1.15627 7.24617 1.00794
H -1.43108 3.48686 6.21675 0 0 0 3.29186 6.35839 -3.95893 1.00794
H 14.0984 2.60396 6.39748 0 0 0 -5.27281 -4.2316 -0.249883 1.00794
H 2.33105 7.14555 4.88903 0 0 0 -4.85448 5.35601 -1.8804 1.00794
H 2.43903 5.37495 4.82738 0 0 0 -2.17187 -6.56434 -1.91344 1.00794
H 3.22387 6.27415 6.15064 0 0 0 2.45746 -0.807721 6.69955 1.00794
H 0.03973 0.50183 15.5501 0 0 0 -0.448461 -1.32739 2.86616 1.00794
H -0.80008 0.64176 13.9985 0 0 0 1.41602 -3.07233 -4.52945 1.00794
H -0.39037 2.10901 14.919 0 0 0 3.19977 7.62213 -0.0449306 1.00794
H 1.38872 -0.86299 12.389 0 0 0 -3.42227 0.943075 -4.54713 1.00794
H 1.77857 -1.35596 14.0474 0 0 0 -1.35441 -0.68326 7.29317 1.00794
H 3.06474 -0.75595 12.9752 0 0 0 5.4953 3.58815 -1.30997 1.00794
H 2.27242 3.29217 12.7903 0 0 0 8.0975 -8.86718 -2.80107 1.00794
H 0.89507 2.56365 11.9156 0 0 0 -8.0104 -0.626432 2.33485 1.00794
H 2.54205 1.96342 11.6596 0 0 0 -2.19623 -1.30906 -1.0833 1.00794
H 14.179 3.44232 14.4402 0 0 0 1.66418 2.58021 -2.88322 1.00794
H 13.1588 2.79455 15.7517 0 0 0 -7.05869 -3.25022 -3.67242 1.00794
H 13.7003 4.48034 15.7957 0 0 0 2.02466 3.52804 2.43368 1.00794
H -1.90188 4.76919 0.1353 0 0 0 2.68172 -5.00599 0.788657 1.00794
H -1.2322 3.71598 16.8582 0 0 0 3.03745 6.61305 -4.82301 1.00794
H -2.51048 5.98877 1.27278 0 0 0 -0.493274 0.814503 7.39301 1.00794
H -2.87068 8.08412 8.35249 0 0 0 7.48978 -0.444183 0.782245 1.00794
H -3.97035 8.21629 6.97489 0 0 0 -2.30216 -0.407941 -4.10586 1.00794
H -4.56729 8.52615 8.61241 0 0 0 0.824839 7.84853 -0.626633 1.00794
H 0.51639 8.41658 7.35172 0 0 0 -1.35475 0.535827 -8.69111 1.00794
H 1.50184 7.4422 8.46872 0 0 0 6.55032 -2.78244 1.27083 1.00794
H -0.26507 7.25769 8.44578 0 0 0 -6.06639 -3.46743 0.704854 1.00794
H 4.8026 -1.33461 8.75871 0 0 0 -1.18989 4.05323 -2.80151 1.00794
H -2.66683 11.3921 9.87799 0 0 0 5.17686 -3.98102 1.92834 1.00794
H -4.40557 11.5792 9.55614 0 0 0 -5.6059 -3.46329 -1.22783 1.00794
H 9.08985 10.7742 8.9225 0 0 0 2.61012 -9.86843 2.61642 1.00794
H -6.27194 10.6237 8.52092 0 0 0 4.74942 -5.79571 -4.97428 1.00794
H -6.76795 11.171 10.1405 0 0 0 0.834034 0.895488 7.05116 1.00794
H 11.4801 6.20113 12.6527 0 0 0 -9.96061 -2.12942 -0.318037 1.00794
H 12.9487 5.26799 12.263 0 0 0 3.33578 -2.63388 -3.63478 1.00794
H -4.11288 6.41567 13.6156 0 0 0 2.10452 -1.55474 4.02844 1.00794
H -4.67583 7.90925 15.2058 0 0 0 1.80822 -3.595 -0.662262 1.00794
H 11.2891 7.24391 16.4152 0 0 0 6.98369 5.08627 -4.91129 1.00794
H -5.22036 8.92484 16.563 0 0 0 -0.24896 3.19085 4.64519 1.00794
H -2.17191 8.84874 12.1 0 0 0 1.52007 2.94269 2.09656 1.00794
H -2.54067 9.02318 10.3706 0 0 0 -1.02149 6.13861 -1.34866 1.00794
H -2.80622 7.46524 11.1922 0 0 0 -3.67559 -5.45335 -0.162704 1.00794
H -3.38207 9.75567 15.4119 0 0 0 6.16703 0.931806 7.66233 1.00794
H -2.86056 10.4302 13.8537 0 0 0 4.95755 1.60148 -2.2947 1.00794
H -4.53798 10.6476 14.3901 0 0 0 -5.02106 8.50725 2.5561 1.00794
H 5.15315 2.67353 2.97229 0 0 0 4.44047 -6.17699 0.923371 1.00794
H 3.97291 3.52894 1.95049 0 0 0 -2.25578 0.654029 -4.94878 1.00794
H 4.82663 4.40693 3.24026 0 0 0 2.29865 6.38601 2.59573 1.00794
H 3.44013 6.46103 1.15453 0 0 0 7.18004 5.24733 2.82177 1.00794
H 2.48882 7.53891 2.2037 0 0 0 -0.72069 3.62173 4.19694 1.00794
H 4.10829 6.9778 2.70817 0 0 0 2.81427 -0.720582 2.44453 1.00794
H 7.18265 -1.93781 12.3018 0 0 0 -3.09396 -3.77782 -1.65535 1.00794
H 8.11985 -1.48511 13.736 0 0 0 -1.88412 1.25267 7.54781 1.00794
H 8.3858 -0.64529 12.1879 0 0 0 0.845884 4.47125 -2.60127 1.00794
H 4.50583 1.22644 11.867 0 0 0 4.07751 0.754079 6.67307 1.00794
H 4.85381 -0.40915 11.2485 0 0 0 -0.998367 -8.21353 2.94663 1.00794
H 6.00332 0.9153 10.9686 0 0 0 4.0086 1.71388 -2.1111 1.00794
H 4.25735 9.65604 5.30615 0 0 0 1.70333 3.34106 1.34124 1.00794
H 2.59247 9.4767 4.67775 0 0 0 -3.841 -3.94636 -2.83617 1.00794
H 3.07945 10.9675 5.50762 0 0 0 5.46765 -0.00721019 -0.293575 1.00794
H 4.14021 10.7727 16.6096 0 0 0 1.1999 -1.6579 4.78029 1.00794
H 5.01633 9.36127 17.2215 0 0 0 -20.1094 4.47318 1.40663 1.00794
H 4.17402 13.6359 0.88683 0 0 0 -1.32243 -0.0219539 6.59062 1.00794
H 1.57111 11.6357 8.82169 0 0 0 1.14072 4.36038 3.26248 1.00794
H 1.8512 10.2694 7.72347 0 0 0 5.31634 -1.85737 -7.45035 1.00794
H 0.23149 10.5428 8.41249 0 0 0 -7.17702 -0.289816 0.662993 1.00794
H 7.33392 0.22996 6.37215 0 0 0 1.90079 -0.0895619 -7.43724 1.00794
H 8.1457 0.15699 7.9558 0 0 0 3.92114 1.69369 3.18851 1.00794
H 6.70746 -0.84018 7.65478 0 0 0 -1.68324 -5.05954 -1.18989 1.00794
H -0.03925 9.14974 13.0501 0 0 0 -0.368427 -2.00728 -4.64864 1.00794
H 1.00735 9.27083 14.4758 0 0 0 5.51427 -1.67577 0.889833 1.00794
H -0.54321 10.1353 14.4519 0 0 0 -6.13247 2.5652 3.83095 1.00794
H 0.1214 10.9469 0.7192 0 0 0 -2.64493 -0.524365 7.31177 1.00794
H 2.25216 7.98012 16.7538 0 0 0 5.69908 -2.27929 -2.64025 1.00794
H 1.21658 9.43179 16.7032 0 0 0 -0.398189 6.37557 0.632316 1.00794
H 13.4408 4.63026 3.07215 0 0 0 3.9939 -0.853462 -3.01195 1.00794
H 13.7598 3.86839 4.63865 0 0 0 2.79073 0.131209 -0.680157 1.00794
H 12.1084 3.86154 3.96772 0 0 0 -7.25177 -4.16396 -0.214316 1.00794
H 10.8819 2.59927 5.78849 0 0 0 1.96834 4.80525 0.144929 1.00794
H 10.942 0.9436 5.1558 0 0 0 -0.099352 -5.93803 -7.18707 1.00794
H 9.81496 1.35994 6.47301 0 0 0 -6.13012 -1.4437 3.35081 1.00794
H 7.52727 3.24085 6.03713 0 0 0 -0.311724 -5.13726 5.29251 1.00794
H 7.02596 3.7835 4.41571 0 0 0 -2.96058 -1.75759 -6.15964 1.00794
H 8.48931 4.45583 5.16752 0 0 0 3.6979 2.4716 -0.642332 1.00794
H 13.4717 0.36241 15.0584 0 0 0 -7.02758 2.35855 -1.66265 1.00794
H 14.2007 -1.10216 15.7546 0 0 0 -0.34121 -6.36367 0.833393 1.00794
H 14.8738 0.49887 16.1291 0 0 0 -0.720284 2.61147 8.1493 1.00794
H 3.07141 10.8599 14.7838 0 0 0 -5.97115 -4.82721 0.950882 1.00794
H 12.132 -1.76651 14.249 0 0 0 5.15919 5.22739 1.44061 1.00794
H 10.5022 -1.97444 13.5778 0 0 0 -3.86372 1.45438 -3.67488 1.00794
H 13.7975 -0.1073 8.89549 0 0 0 -0.0613813 -0.170342 0.221328 1.00794
H 13.3681 1.58391 9.2549 0 0 0 4.67818 5.14139 -0.599904 1.00794
H 12.6236 0.26371 10.1693 0 0 0 -2.54946 -3.36454 1.29222 1.00794
H 7.3459 12.2192 11.0132 0 0 0 1.89025 -1.28128 -6.501 1.00794
H 14.1779 -1.35803 12.2524 0 0 0 -6.41046 1.84273 1.06754 1.00794
H 15.8979 -1.04159 12.5534 0 0 0 5.47238 4.12457 1.33057 1.00794
H 12.347 7.34901 1.06283 0 0 0 0.517568 -2.08015 -7.95145 1.00794
H 12.5217 6.56358 2.6448 0 0 0 0.625749 -1.39821 2.96148 1.00794
H 11.1823 7.6829 2.35626 0 0 0 -5.70093 -1.57079 2.23258 1.00794
H 5.74195 6.55421 5.07277 0 0 0 -1.54377 -5.67224 -0.74417 1.00794
H 5.21849 8.08043 4.32551 0 0 0 2.0053 -2.95539 -6.03041 1.00794
H 6.5193 8.08559 5.54207 0 0 0 6.15753 5.19099 2.29427 1.00794
H 9.27712 0.63862 14.2736 0 0 0 -1.39426 -5.39547 -3.34152 1.00794
H 10.8439 1.23762 14.8359 0 0 0 7.58371 -4.15436 3.36676 1.00794
H 9.4368 1.32755 15.904 0 0 0 -3.14763 -0.0506842 7.46618 1.00794
H 9.24437 1.50028 10.3923 0 0 0 -0.271916 -2.67949 -4.37125 1.00794
H 8.68509 3.03934 11.0886 0 0 0 1.1754 6.78174 -1.13806 1.00794
H 8.58798 1.54284 12.0422 0 0 0 8.14583 -1.59791 -0.536507 1.00794
H 14.0019 2.8301 11.8111 0 0 0 1.11622 3.8652 -4.13109 1.00794
H -1.64297 2.34579 12.7495 0 0 0 6.54875 2.56289 -2.99095 1.00794
H 13.8626 1.57871 13.0616 0 0 0 -3.68432 -7.18504 0.786337 1.00794
H 7.37722 2.36542 13.5431 0 0 0 -0.0167938 1.41179 -3.39487 1.00794
H 7.10533 1.56659 15.1082 0 0 0 1.91261 -5.33663 5.11741 1.00794
H 5.74647 2.28406 14.2277 0 0 0 -3.398 1.94657 0.0345627 1.00794
H 15.7616 -2.42923 17.2267 0 0 0 -1.47101 2.84513 -6.25049 1.00794
H 16.0964 -0.10711 1.23959 0 0 0 6.48157 -0.93808 1.91985 1.00794
H 6.32266 13.6433 1.54355 0 0 0 -0.719611 -6.05619 -1.72237 1.00794
H 7.33827 5.9054 6.68769 0 0 0 2.23124 0.211917 -7.15617 1.00794
H 7.07057 7.01806 8.05529 0 0 0 -1.43676 6.42207 1.6045 1.00794
H 7.97362 5.5062 8.2955 0 0 0 2.27174 -3.94694 3.27655 1.00794
H 10.3556 5.97169 5.32453 0 0 0 -2.02271 0.270935 -4.36563 1.00794
H 10.648 5.04467 6.81179 0 0 0 -5.7406 -2.67154 2.98633 1.00794
H 11.6564 6.45473 6.42653 0 0 0 3.17648 4.69475 2.64959 1.00794
H 3.92481 10.173 9.15467 0 0 0 -1.65916 -5.85924 -2.05622 1.00794
H 4.03049 11.9172 8.8034 0 0 0 -0.089026 6.36088 -5.33845 1.00794
H 4.88131 11.2324 10.2126 0 0 0 4.15259 2.39879 5.06466 1.00794
H 8.5073 9.44712 6.60437 0 0 0 -5.36623 -1.2277 6.56135 1.00794
H 9.05722 8.54916 5.17314 0 0 0 1.89475 -3.98595 -0.120844 1.00794
H 10.237 9.30844 6.24555 0 0 0 5.95569 0.631478 1.91868 1.00794
H 7.26006 4.92163 12.2686 0 0 0 -6.59136 -1.22636 0.380538 1.00794
H 8.84068 4.58096 13.0244 0 0 0 2.69534 -1.26203 6.50148 1.00794
H 8.73888 5.65558 11.5998 0 0 0 4.05179 3.38553 -4.64898 1.00794
O 0.82932 2.28397 8.54286 0 0 0 -65.506 41.6805 4.49807 15.9994
O -0.53356 6.1516 5.50032 0 0 0 2.14655 -66.3953 -39.7379 15.9994
O 0.76185 4.63487 7.29518 0 0 0 -70.6901 -8.48192 22.9001 15.9994
O -1.73305 7.55407 3.49171 0 0 0 -59.3823 -44.0955 -35.2311 15.9994
O 0.08127 7.70024 1.59663 0 0 0 53.5315 8.18406 -20.3829 15.9994
O -2.17644 9.07846 1.36455 0 0 0 -43.5684 -63.1864 -22.3237 15.9994
O -5.05674 10.978 3.90847 0 0 0 1.94242 -80.052 6.98193 15.9994
O -4.17184 11.0082 6.39676 0 0 0 -62.9991 -6.68805 40.1562 15.9994
O -3.84835 13.1731 4.86642 0 0 0 52.6843 49.2291 -48.1942 15.9994
O 11.3148 8.39451 10.8548 0 0 0 21.9011 -75.8193 1.80376 15.9994
O 6.84891 0.54032 1.45309 0 0 0 -78.991 -12.0534 27.277 15.9994
O 6.45196 -2.12668 16.3458 0 0 0 6.45252 -83.1223 -15.0288 15.9994
O 3.96093 -1.23549 16.6096 0 0 0 18.6436 72.7125 34.0525 15.9994
O 6.51446 2.84803 0.15225 0 0 0 -9.06662 49.8206 -67.9843 15.9994
O 5.26208 -0.66306 14.3836 0 0 0 -66.6834 49.0614 -26.2393 15.9994
O 2.72918 1.57167 15.0162 0 0 0 45.313 -76.8367 -18.5852 15.9994
O 1.77333 3.3134 16.8939 0 0 0 -37.3766 45.2466 -57.8876 15.9994
O 4.67574 9.87559 2.22443 0 0 0 65.2481 -2.06255 8.04408 15.9994
O -0.37305 9.8397 3.1899 0 0 0 87.3237 2.72337 -4.76256 15.9994
O -0.78327 12.4842 3.06237 0 0 0 -57.3435 -4.8541 -50.4465 15.9994
O -2.46157 10.945 4.36704 0 0 0 -13.9841 -83.1458 -17.3274 15.9994
O 2.52375 11.424 2.46186 0 0 0 -70.8602 -25.5539 16.3952 15.9994
O 9.3461 -0.2893 1.91091 0 0 0 58.1449 49.5271 -18.0882 15.9994
O 0.00844 11.3072 5.35023 0 0 0 31.9253 -63.3575 39.8468 15.9994
O 0.23537 6.46036 14.8594 0 0 0 33.0484 -7.10116 73.0406 15.9994
O -1.33462 7.94406 16.4167 0 0 0 34.849 84.3878 20.4804 15.9994
O 7.98854 0.92957 3.85152 0 0 0 -34.0153 5.48956 65.6887 15.9994
O 12.6447 2.06195 1.46703 0 0 0 -27.1121 -75.6188 1.96676 15.9994
O 0.22135 -0.32901 8.29246 0 0 0 72.9773 -39.203 -7.08374 15.9994
O 11.411 -0.735901 17.0904 0 0 0 -32.0338 -42.68 51.5459 15.9994
O 9.0413 -1.73798 16.4179 0 0 0 15.5289 -71.8195 -30.7686 15.9994
O -0.72246 1.13274 10.3196 0 0 0 -17.1919 63.1685 46.2346 15.9994
O 11.6608 4.35821 0.5491 0 0 0 61.445 46.3341 -34.1367 15.9994
O 10.7868 4.84348 15.3619 0 0 0 9.82444 86.0294 -34.6806 15.9994
O 9.57436 5.99162 0.26076 0 0 0 -36.7316 -72.8125 -2.75737 15.9994
O 11.0527 3.14517 13.3546 0 0 0 -60.5481 -17.1599 53.5232 15.9994
O 8.35489 4.26735 16.2327 0 0 0 -16.556 -77.2999 -18.5041 15.9994
O 5.607 8.41439 0.2119 0 0 0 56.5297 8.23688 58.1643 15.9994
O 12.6926 3.95277 8.41617 0 0 0 -3.99177 -42.3836 -60.5106 15.9994
O 11.7455 3.21668 10.7801 0 0 0 78.7102 -18.4428 4.91108 15.9994
O 7.84148 8.72433 2.73619 0 0 0 -60.5587 49.9392 54.5523 15.9994
O 9.10519 8.61023 0.37988 0 0 0 37.7731 34.3147 -35.62 15.9994
O 10.1438 9.96936 2.38413 0 0 0 36.0164 -56.5089 9.01472 15.9994
O 4.8996 12.2229 3.4051 0 0 0 24.6869 3.9068 -78.0503 15.9994
O 13.2394 0.89775 3.75968 0 0 0 -73.9071 41.8685 44.6944 15.9994
O 8.90818 9.22487 15.9365 0 0 0 -23.0013 68.6312 -32.1813 15.9994
O 7.99269 10.8994 1.18995 0 0 0 -6.76345 65.2748 51.1075 15.9994
O 10.0272 7.62396 8.73969 0 0 0 55.369 -60.9623 -12.8316 15.9994
O 7.19483 11.9545 8.28249 0 0 0 2.09881 3.35097 78.0965 15.9994
O 9.68422 12.3003 3.65357 0 0 0 14.5775 75.6549 -19.2916 15.9994
O 7.23102 13.2348 4.16473 0 0 0 29.8037 61.1452 -35.8138 15.9994
O 8.73942 12.2624 6.12287 0 0 0 64.173 -35.2418 11.7892 15.9994
O 7.26345 6.41457 15.0351 0 0 0 -29.9475 63.3197 29.5445 15.9994
O 9.4592 7.52323 13.9478 0 0 0 69.0535 -38.4986 -29.5449 15.9994
O 8.61953 8.51639 10.7997 0 0 0 -21.7775 -78.8819 -20.1786 15.9994
O 7.03774 7.93064 12.8849 0 0 0 -44.3758 -7.1592 9.52983 15.9994
346
Timestep=91 Time=91.000000 pbc="T T T" Lattice="17.0761 0 0 -8.04072 13.9806 0 0.858085 -2.73952 17.2462" Potential_energy=-216.89431304294857 Temperature=0 Stress="876.9677599417261 705.8619264091143 -1714.627811848054 705.8619264091143 5012.013286900784 828.781294636655 -1714.627811848054 828.781294636655 1674.5821274118316" Properties=species:S:1:pos:R:3:vel:R:3:forces:R:3:mass:R:1
Si 1.57492 0.950747 0.223269 0 0 0 -1.02009 0.346708 -0.300478 28.0855
Si 3.45665 0.263728 5.20007 0 0 0 -2.05133 -0.649184 1.0108 28.0855
Si 0.685437 1.08362 9.09234 0 0 0 -1.52613 0.332485 0.358947 28.0855
Si -1.49289 7.31258 4.66401 0 0 0 0.635539 1.41377 1.01271 28.0855
Si -0.07519 6.12324 0.752852 0 0 0 0.741041 1.48001 1.16237 28.0855
Si 1.1478 3.58291 7.5862 0 0 0 0.668812 0.330162 -0.77548 28.0855
Si 13.7205 4.47129 8.28397 0 0 0 -0.0607248 0.643452 -0.604974 28.0855
Si 0.943945 6.037 5.84724 0 0 0 -1.21417 0.13971 0.674912 28.0855
Si 1.46871 1.00292 14.284 0 0 0 -0.0315819 -0.28702 0.035657 28.0855
Si 11.8452 4.06094 14.6534 0 0 0 -0.279046 -0.785089 0.479055 28.0855
Si -0.871546 8.62967 2.09832 0 0 0 0.356396 0.880832 2.63048 28.0855
Si -6.17719 10.9674 3.1948 0 0 0 0.229607 0.977665 0.326433 28.0855
Si -2.89026 10.0355 0.342992 0 0 0 -0.105225 -1.33746 -0.681812 28.0855
Si -2.62195 10.4256 7.49021 0 0 0 0.776775 1.048 -0.324956 28.0855
Si 10.2759 8.39793 10.2295 0 0 0 0.911018 0.37853 1.50072 28.0855
Si -3.75818 11.4369 4.87173 0 0 0 -0.249821 2.18984 1.98039 28.0855
Si 0.673287 5.76357 13.6891 0 0 0 0.869245 -0.405124 1.08962 28.0855
Si 10.2445 8.38724 15.0244 0 0 0 0.59186 -0.462849 0.0494292 28.0855
Si -4.19026 8.68479 11.6792 0 0 0 -0.649375 -0.374861 0.190131 28.0855
Si 7.71726 -0.00470747 2.45943 0 0 0 2.8715 4.18586 -2.38364 28.0855
Si 7.64149 -1.45063 17.0443 0 0 0 0.353473 -1.01864 -2.18653 28.0855
Si 4.95853 -1.89857 15.8358 0 0 0 -0.710211 1.0528 0.959222 28.0855
Si 5.83987 3.91352 0.857067 0 0 0 0.531103 0.455848 0.184952 28.0855
Si 4.50573 8.98449 1.10658 0 0 0 0.133905 0.293849 0.608404 28.0855
Si 5.78145 0.0228918 13.6338 0 0 0 -0.413498 1.46329 -0.968011 28.0855
Si 3.00406 2.83884 16.0417 0 0 0 -1.07924 0.0448527 0.265395 28.0855
Si 4.07184 11.2709 3.11135 0 0 0 -1.75504 0.303354 0.774193 28.0855
Si -0.971002 11.1583 3.72982 0 0 0 -3.32207 5.27073 -0.00429937 28.0855
Si 1.94986 12.3201 1.227 0 0 0 -0.401273 -1.29527 -0.328267 28.0855
Si 0.504403 12.6687 6.0004 0 0 0 -0.636294 0.15508 0.962677 28.0855
Si -1.08366 7.77715 14.8145 0 0 0 0.762071 -1.21676 -0.723675 28.0855
Si 13.6109 2.23127 3.18822 0 0 0 -0.535593 0.883654 -0.415217 28.0855
Si 8.61032 2.39577 3.9608 0 0 0 0.0528456 0.701071 -0.0270576 28.0855
Si 11.7599 2.95256 0.899251 0 0 0 -1.32412 0.625922 0.537326 28.0855
Si 16.5117 -0.936553 7.31363 0 0 0 0.480869 -0.200814 2.10639 28.0855
Si 10.4343 -0.655592 16.2538 0 0 0 1.17172 0.91007 0.638595 28.0855
Si 15.3105 0.450268 10.9383 0 0 0 -1.41162 0.688387 -0.0939823 28.0855
Si 10.5683 5.57799 1.82819 0 0 0 0.558828 -1.09272 -1.42822 28.0855
Si 7.42158 7.57826 3.40822 0 0 0 -0.0780171 -0.863635 -0.0834488 28.0855
Si 9.91151 4.54599 17.0227 0 0 0 -0.900631 -0.976015 0.578969 28.0855
Si 10.9962 2.34324 12.4119 0 0 0 -0.632534 -0.115407 -0.10473 28.0855
Si 7.0562 4.92805 16.1868 0 0 0 -0.899956 1.03987 -0.175321 28.0855
Si 11.4728 4.31111 10.2274 0 0 0 -0.391934 0.156439 0.888569 28.0855
Si 8.71144 9.67202 1.68684 0 0 0 -0.314782 -2.26738 -0.860293 28.0855
Si 13.7493 -0.456937 4.46968 0 0 0 -0.408835 0.150925 -1.13731 28.0855
Si 8.30275 9.05652 17.2403 0 0 0 -0.0599259 0.00782365 -0.821388 28.0855
Si 9.80682 7.19368 7.50912 0 0 0 0.901097 -0.40026 0.258029 28.0855
Si 6.55871 10.9217 8.12577 0 0 0 0.369201 -0.902573 0.000903008 28.0855
Si 8.39368 12.055 4.49771 0 0 0 -1.23395 1.65788 0.559792 28.0855
Si 7.97353 6.70489 13.9293 0 0 0 -0.358367 0.518467 -0.629076 28.0855
Si 7.96222 9.01158 11.9395 0 0 0 0.703682 0.921024 -0.0782194 28.0855
C 1.21057 1.03121 2.04237 0 0 0 -0.0223576 0.237998 -0.598381 12.0107
C 4.43348 1.84081 5.07593 0 0 0 -0.234758 -0.538992 -0.346662 12.0107
C 0.481748 4.57526 1.63479 0 0 0 -0.199367 0.957701 -0.516275 12.0107
C 2.31723 4.31994 8.85365 0 0 0 0.404423 0.219473 0.426739 12.0107
C -2.10463 4.46274 9.67769 0 0 0 -0.0447917 0.122285 0.488583 12.0107
C 14.3288 3.32206 6.96831 0 0 0 -0.587049 0.526358 -0.787938 12.0107
C 2.60661 5.52737 5.15553 0 0 0 -0.468337 -0.30997 0.0620753 12.0107
C -0.196089 1.19722 15.0805 0 0 0 0.382102 -0.533542 -0.250128 12.0107
C 1.54246 -0.767837 13.702 0 0 0 -0.21411 0.59275 0.260094 12.0107
C 1.69181 2.17072 12.8396 0 0 0 -0.467543 -0.138953 -0.197452 12.0107
C 13.3029 2.9596 14.9714 0 0 0 0.226884 -0.144375 -0.313177 12.0107
C -1.91715 5.97418 0.389261 0 0 0 0.400597 0.736263 0.540578 12.0107
C -3.52672 8.80654 7.5032 0 0 0 0.0418893 -0.321494 -0.2774 12.0107
C 1.18367 7.56792 6.90196 0 0 0 0.000932552 -0.31528 -0.511239 12.0107
C -2.45676 11.1446 9.20355 0 0 0 0.249167 -0.111327 0.235203 12.0107
C 10.4142 10.1989 9.71326 0 0 0 -0.976512 1.63976 0.247868 12.0107
C 12.4457 5.48867 13.64 0 0 0 0.431037 0.343528 -0.330292 12.0107
C 11.7406 8.10067 16.1096 0 0 0 -0.379638 -0.0358549 -0.114669 12.0107
C -2.96856 7.57887 10.8247 0 0 0 -0.553791 0.109976 0.340675 12.0107
C -3.83804 10.8588 14.6786 0 0 0 0.171171 -0.602682 0.0672308 12.0107
C 4.35803 3.24381 1.77343 0 0 0 -0.943336 0.334991 0.316637 12.0107
C 3.41208 7.84249 2.09563 0 0 0 0.596375 1.22168 -1.05342 12.0107
C 7.21287 -1.11134 13.2555 0 0 0 0.112926 0.744519 0.389372 12.0107
C 4.68917 -0.0880702 12.1234 0 0 0 0.112024 -0.117427 -0.45381 12.0107
C 3.99961 10.4761 4.79556 0 0 0 0.175266 0.568463 -0.496467 12.0107
C 3.39323 12.7707 0.143207 0 0 0 -1.39778 -0.0751989 0.43775 12.0107
C 1.39705 12.0895 7.53713 0 0 0 -0.108106 -0.606815 -0.111144 12.0107
C 7.18098 -0.159032 6.54716 0 0 0 -0.189421 -0.35532 -0.45326 12.0107
C -0.553567 9.20908 13.7559 0 0 0 -0.219713 -0.625578 0.139886 12.0107
C 0.772174 11.3731 0.135574 0 0 0 -0.41658 0.414026 -0.210503 12.0107
C 14.3099 3.8946 3.63644 0 0 0 0.605913 -1.01806 -0.266132 12.0107
C 10.1456 2.27085 5.00932 0 0 0 -0.184169 -0.859219 0.107841 12.0107
C 7.47999 3.66633 4.74038 0 0 0 -0.45105 -0.930461 -0.13295 12.0107
C 14.018 -0.224695 16.9806 0 0 0 -0.25141 1.53372 0.435523 12.0107
C 11.5348 -1.12158 14.8133 0 0 0 -1.04262 0.529671 0.494118 12.0107
C 13.9911 0.665167 9.63218 0 0 0 0.164911 0.120301 -0.576679 12.0107
C 15.1261 -1.21881 11.7419 0 0 0 0.400534 -1.20823 -0.0367166 12.0107
C 11.6931 6.88141 2.55144 0 0 0 0.578736 0.414614 -0.655467 12.0107
C 6.26934 7.58287 4.87199 0 0 0 -0.288277 -0.166226 0.53292 12.0107
C 9.82981 1.05652 15.9067 0 0 0 -0.735977 -0.0956239 0.226522 12.0107
C 9.46473 1.80036 11.5062 0 0 0 -0.237568 0.0845574 0.0879217 12.0107
C 14.8682 1.68289 12.2422 0 0 0 0.972127 1.09298 0.0860288 12.0107