366
Timestep=0 Time=0.000000 pbc="T T T" Lattice="15.5086 0 0 -8.25388 13.4224 0 0.616249 -0.649062 16.909" Potential_energy=2430.2807100841646 Temperature=0 Stress="175333.40518063368 -529.7515658342882 -1556.5398180575135 -529.7515658342882 162516.2665570361 3917.599295256333 -1556.5398180575135 3917.599295256333 163581.70585864445" Properties=species:S:1:pos:R:3:vel:R:3:forces:R:3:mass:R:1
Si -5.19777 12.9847 7.99202 0 0 0 -58.1137 -23.3542 8.28183 28.0855
Si 14.2514 2.03367 9.32088 0 0 0 21.3206 -24.2036 14.2005 28.0855
Si 0.9832 2.50185 5.03033 0 0 0 6.18865 14.1935 -48.1024 28.0855
Si -5.8403 12.6585 12.7521 0 0 0 -30.6341 25.1291 12.9495 28.0855
Si 14.5535 1.55199 14.9765 0 0 0 6.01894 -49.58 12.7024 28.0855
Si 1.2947 1.5482 11.0889 0 0 0 6.74671 25.1526 14.3073 28.0855
Si -3.83548 6.38713 3.30656 0 0 0 3.88944 -42.0425 -39.5823 28.0855
Si -0.78687 6.01424 16.1947 0 0 0 37.8251 28.7472 -6.4036 28.0855
Si 0.08913 4.14262 7.55284 0 0 0 -4.19984 17.0571 -19.6655 28.0855
Si -3.45077 6.21664 9.52071 0 0 0 -10.0684 -22.4765 35.3266 28.0855
Si 0.28724 3.78002 13.1758 0 0 0 0.560394 -20.9487 38.5769 28.0855
Si 11.7555 6.16591 15.1096 0 0 0 -23.4637 5.9592 23.6381 28.0855
Si -1.32396 6.15124 11.7294 0 0 0 11.9825 100.162 1.04124 28.0855
Si 8.84873 10.5332 3.94116 0 0 0 -22.9575 70.3846 -57.9968 28.0855
Si -3.39967 10.8543 16.7091 0 0 0 -9.89663 -11.2171 -30.1868 28.0855
Si -2.63546 8.86102 7.71714 0 0 0 71.3095 44.2023 -32.6895 28.0855
Si -6.31147 10.4737 9.50104 0 0 0 -36.437 -31.1955 -0.523671 28.0855
Si -4.13286 10.986 5.89533 0 0 0 15.1666 -12.5542 8.42531 28.0855
Si -2.74089 8.32319 13.4439 0 0 0 8.9314 19.9918 12.6409 28.0855
Si -4.00896 10.4416 11.3701 0 0 0 -7.78576 -48.7847 -5.82421 28.0855
Si 7.72254 0.00683 1.90078 0 0 0 44.2085 -5.18681 40.4763 28.0855
Si 3.89705 2.08183 4.59349 0 0 0 2.15525 5.85438 -59.6062 28.0855
Si 6.82436 2.84971 0.75228 0 0 0 57.0701 -45.8336 5.56747 28.0855
Si -0.15838 13.0977 7.7736 0 0 0 -9.35159 8.85043 3.71537 28.0855
Si 4.12807 1.83683 9.65377 0 0 0 29.8507 -29.9915 -0.20112 28.0855
Si 6.68032 1.8251 6.06014 0 0 0 43.2019 12.686 0.520432 28.0855
Si 8.12261 -0.49054 13.2298 0 0 0 48.0666 -15.2312 -19.7422 28.0855
Si 4.77297 1.99643 16.0966 0 0 0 27.2469 18.9582 1.18633 28.0855
Si 6.66653 1.6946 11.5303 0 0 0 69.6994 25.0178 10.9702 28.0855
Si 3.90256 6.67874 16.5765 0 0 0 5.25575 -4.9987 -12.1324 28.0855
Si 5.62573 3.97019 7.84998 0 0 0 28.0938 13.1385 4.60981 28.0855
Si 1.88485 5.85123 9.16224 0 0 0 -31.4813 -3.20509 27.7346 28.0855
Si 4.26417 6.06935 5.85264 0 0 0 -1.93053 42.0045 10.7193 28.0855
Si 1.5658 6.18281 14.4521 0 0 0 -3.60465 16.6317 6.9458 28.0855
Si 4.31945 6.80508 10.7102 0 0 0 -12.1074 -44.6292 38.7301 28.0855
Si 2.29852 9.41383 1.7114 0 0 0 -32.9814 -18.7559 -4.05463 28.0855
Si -1.60261 11.3476 3.89978 0 0 0 30.5804 -70.3121 -23.5138 28.0855
Si 1.4994 10.7943 16.7442 0 0 0 4.55796 -44.6629 7.28445 28.0855
Si -1.33179 10.9443 9.62531 0 0 0 6.30443 -10.8229 -18.0465 28.0855
Si 1.02231 11.1959 5.63747 0 0 0 -54.7231 -69.8976 -21.0156 28.0855
Si 2.7465 8.61673 12.7451 0 0 0 9.9093 28.7771 18.7334 28.0855
Si -0.91072 10.3969 14.9233 0 0 0 -15.511 32.3153 -0.0554768 28.0855
Si 1.3736 11.0387 11.3673 0 0 0 -13.2908 -17.0779 -4.91627 28.0855
Si 12.9919 -0.0097 1.83497 0 0 0 35.2843 -5.35002 -2.90904 28.0855
Si 9.03274 1.73281 3.98319 0 0 0 21.9571 4.09007 -7.51919 28.0855
Si 12.108 1.21054 16.8876 0 0 0 -9.5772 21.3272 6.43169 28.0855
Si 13.229 -0.18057 7.4213 0 0 0 -27.9032 -32.6191 3.90631 28.0855
Si 9.19956 1.83643 9.69002 0 0 0 16.4634 -6.98719 16.5527 28.0855
Si 11.5774 1.77773 5.90906 0 0 0 27.1583 53.0472 -17.6977 28.0855
Si 13.3133 -0.46284 12.8751 0 0 0 0.793685 -2.09895 28.9162 28.0855
Si 9.46826 1.68664 15.2209 0 0 0 38.1864 -0.0417175 -0.232517 28.0855
Si 11.7921 1.80033 11.2854 0 0 0 10.648 8.96348 5.55817 28.0855
Si 10.3396 3.89101 2.04339 0 0 0 27.6281 -5.89949 -20.7532 28.0855
Si 8.85871 6.07805 0.23769 0 0 0 -9.66328 10.7201 -50.0198 28.0855
Si 10.6676 3.7927 7.99514 0 0 0 -53.0063 -21.5549 -24.5642 28.0855
Si 6.96 6.46063 9.28229 0 0 0 -31.892 52.4407 -2.9438 28.0855
Si 9.44849 7.1093 5.37523 0 0 0 -11.9357 -16.327 27.6905 28.0855
Si 10.5836 3.93294 13.1468 0 0 0 -14.5056 -20.5145 5.01912 28.0855
Si 9.43991 6.12671 11.3583 0 0 0 13.0639 8.71715 15.9178 28.0855
Si 7.83831 8.59465 1.70103 0 0 0 -35.9617 22.0987 -50.2763 28.0855
Si 3.63524 11.3875 3.87854 0 0 0 -14.4999 -23.2467 -19.6034 28.0855
Si 7.73935 8.75892 7.20174 0 0 0 -32.2806 24.7372 40.3535 28.0855
Si 3.80486 11.1908 9.37685 0 0 0 -10.225 -24.6113 -22.2215 28.0855
Si 6.20408 10.8892 5.74636 0 0 0 -19.582 -5.91781 9.34228 28.0855
Si 3.97741 10.7206 14.7967 0 0 0 24.4612 -24.0177 -24.4708 28.0855
Si 6.38429 10.7601 11.0412 0 0 0 -57.9864 -34.9395 16.0853 28.0855
C 0.59143 3.59313 3.56229 0 0 0 -2.93801 -2.64034 -4.10387 12.0107
C 1.45388 0.37897 7.75771 0 0 0 -13.4304 1.08644 1.82151 12.0107
C 0.38313 0.78428 4.68251 0 0 0 1.14588 -3.3484 5.35049 12.0107
C 8.47936 11.592 13.6995 0 0 0 -5.35512 13.8276 1.89009 12.0107
C 0.37392 0.88474 16.0473 0 0 0 -0.962016 -0.667591 1.75251 12.0107
C -2.05358 6.07843 3.73311 0 0 0 5.98009 3.92615 -17.8915 12.0107
C -3.85984 7.17818 1.68542 0 0 0 4.74802 -6.82423 0.116358 12.0107
C -0.71561 5.1333 0.11824 0 0 0 4.16767 0.752887 1.80259 12.0107
C -1.14175 8.12211 0.37144 0 0 0 17.8323 -5.58925 -19.3052 12.0107
C -1.02688 5.42809 6.91075 0 0 0 0.266893 -14.8375 5.34053 12.0107
C -6.43361 11.7873 2.61023 0 0 0 -1.43038 -1.38755 3.68014 12.0107
C -4.31242 10.0238 0.83752 0 0 0 4.17294 10.4095 -0.884667 12.0107
C -4.04579 13.0398 0.79303 0 0 0 11.459 2.00142 -5.84213 12.0107
C -4.54562 10.9085 15.2665 0 0 0 -1.28225 -0.931652 6.61027 12.0107
C -1.94154 8.24006 6.14861 0 0 0 -10.5061 2.90869 -4.78879 12.0107
C 3.58172 0.4918 3.77252 0 0 0 7.26631 8.14309 4.79185 12.0107
C 4.18777 3.41178 3.3549 0 0 0 -3.22249 0.495366 -7.34188 12.0107
C 6.94773 4.13303 2.08723 0 0 0 2.73186 -3.31858 2.79602 12.0107
C 3.09178 0.62001 13.7635 0 0 0 -6.48754 -5.69138 -14.7902 12.0107
C 5.71327 0.66426 15.1705 0 0 0 13.8963 20.2032 -25.0948 12.0107
C 4.29854 3.44501 15.019 0 0 0 -12.0605 0.426305 10.0291 12.0107
C 2.67691 2.28787 0.29094 0 0 0 4.59474 12.4286 -6.20507 12.0107
C 6.7923 3.10332 12.704 0 0 0 10.3184 9.73317 1.83038 12.0107
C 3.53666 5.98996 0.94139 0 0 0 9.49828 -5.80655 3.88717 12.0107
C 5.26335 6.93332 15.3427 0 0 0 4.4105 -4.66481 -0.357712 12.0107
C 0.89007 7.32326 8.63104 0 0 0 -9.59431 -0.343346 -2.95039 12.0107
C 1.54467 4.94768 10.699 0 0 0 7.72547 -1.11887 -25.9175 12.0107
C -0.15959 7.53794 11.4554 0 0 0 -8.90992 9.89453 0.508233 12.0107
C 2.56495 5.71041 5.18042 0 0 0 9.64749 8.08537 12.7078 12.0107
C 4.10303 7.57382 6.89274 0 0 0 6.72826 -5.68068 -11.3906 12.0107
C 5.28184 6.68883 4.42869 0 0 0 -13.6272 13.6986 6.52628 12.0107
C 4.57353 5.43501 11.9158 0 0 0 6.11457 -9.45124 3.07936 12.0107
C 1.53152 8.01599 2.64122 0 0 0 -5.66536 -6.86239 5.85232 12.0107
C -1.62302 9.7017 3.10259 0 0 0 14.4228 -1.12353 5.01497 12.0107
C 1.02724 9.37819 5.91266 0 0 0 -3.37058 -2.01985 -7.07021 12.0107
C 13.9825 1.50505 2.23235 0 0 0 7.28436 -8.31483 -6.06014 12.0107
C 5.91907 12.0355 1.465 0 0 0 10.0232 4.84153 10.6849 12.0107
C 12.5943 2.93315 4.9154 0 0 0 4.27639 6.53094 3.53687 12.0107
C 8.02466 5.1624 16.0406 0 0 0 -4.90562 3.06244 -7.46797 12.0107
C 8.29893 5.915 4.56369 0 0 0 -4.2701 -3.93032 -2.66452 12.0107
C 9.5365 4.23516 6.6388 0 0 0 -10.0285 -22.3248 3.45226 12.0107
C 10.3207 6.96168 6.97854 0 0 0 -2.87811 6.16354 -10.4666 12.0107
C 9.09171 7.37941 12.6633 0 0 0 -0.149317 7.93492 4.44284 12.0107
C 6.01046 8.51336 1.9631 0 0 0 -4.92366 -2.92897 -4.48646 12.0107
C 8.10457 9.47767 0.06699 0 0 0 -17.2437 -0.0763004 -6.51477 12.0107
C 3.01199 10.0355 8.23757 0 0 0 0.482287 4.2754 -1.35428 12.0107
C 5.62229 10.3761 15.532 0 0 0 6.68838 3.43436 1.32326 12.0107
C 6.46104 9.34667 12.2129 0 0 0 -7.4674 -8.7613 -1.45549 12.0107
O -0.11629 1.41658 10.2987 0 0 0 -36.7125 -72.4139 15.1362 15.9994
O 1.61276 0.03559 11.5578 0 0 0 -32.9653 -76.635 -25.8083 15.9994
O -0.68321 3.4619 8.82546 0 0 0 -22.6251 72.7675 49.4613 15.9994
O 0.21551 3.04585 6.36746 0 0 0 -62.7717 -67.1244 7.09261 15.9994
O -0.54742 3.00086 14.3368 0 0 0 -35.9113 60.0784 47.859 15.9994
O 1.01561 2.61052 12.2998 0 0 0 49.3241 -18.2436 29.9593 15.9994
O -2.3301 5.69984 15.7258 0 0 0 2.58371 -79.7466 26.4295 15.9994
O -2.12332 5.76069 10.3522 0 0 0 41.9647 -60.3155 -29.3169 15.9994
O -0.79301 4.749 12.4155 0 0 0 -57.5405 -38.1043 -12.8904 15.9994
O -3.11101 7.64935 8.7551 0 0 0 -49.6941 29.0575 12.2049 15.9994
O -5.46431 11.7559 9.02654 0 0 0 52.1225 29.7189 38.0933 15.9994
O -5.32034 10.4326 4.90757 0 0 0 6.57288 -86.6786 -2.98865 15.9994
O -3.7902 9.91368 7.11268 0 0 0 -56.1351 -11.7046 66.4145 15.9994
O -4.59634 12.3687 6.60505 0 0 0 0.379875 73.3975 -51.9705 15.9994
O -3.69794 7.75285 14.6524 0 0 0 -10.3857 38.6804 9.28328 15.9994
O -2.38813 6.92406 12.7073 0 0 0 -32.2927 -68.8078 -10.5655 15.9994
O -5.19627 9.72013 10.4653 0 0 0 -9.94532 -59.5674 -15.498 15.9994
O -3.56918 9.32876 12.4797 0 0 0 -61.5703 -3.47519 21.8011 15.9994
O -4.62414 11.7606 12.0881 0 0 0 56.1776 62.2641 20.144 15.9994
O 2.56967 2.50409 5.46608 0 0 0 18.8425 5.85265 37.1583 15.9994
O 6.93084 1.32704 1.37714 0 0 0 -89.4711 -1.1497 13.3224 15.9994
O 4.17999 0.54343 8.67203 0 0 0 64.8877 -21.0507 -29.2702 15.9994
O 2.59958 2.06481 10.2246 0 0 0 -32.869 55.9927 -49.9417 15.9994
O 5.14167 1.80496 5.6154 0 0 0 -55.957 -37.6476 50.1345 15.9994
O 7.13801 0.40169 6.68498 0 0 0 -54.9307 -67.1325 -44.2547 15.9994
O 5.31598 3.18338 0.24248 0 0 0 -47.0229 46.0776 10.2909 15.9994
O 5.14734 1.59772 10.9119 0 0 0 -46.7293 -29.4645 69.1995 15.9994
O 7.05554 0.26973 12.2586 0 0 0 -68.1658 -44.1596 -23.3003 15.9994
O 4.57835 3.16212 8.81236 0 0 0 -72.715 52.7541 -0.828618 15.9994
O 6.77328 2.97573 7.22027 0 0 0 59.8268 4.87923 23.8419 15.9994
O 1.57951 4.70355 7.99176 0 0 0 61.6849 -5.38047 -14.8671 15.9994
O 4.87108 4.73761 6.64185 0 0 0 -31.9953 -35.033 -66.1375 15.9994
O 1.5324 4.66122 13.8204 0 0 0 57.405 -26.6068 12.1973 15.9994
O 2.49947 6.27278 15.7792 0 0 0 -29.6493 -23.4025 77.2573 15.9994
O 0.0128 6.46721 14.8134 0 0 0 -35.9448 30.5796 -10.6623 15.9994
O 3.4504 6.35636 9.38928 0 0 0 16.5737 -23.654 -63.589 15.9994
O 3.1298 8.79325 0.43666 0 0 0 45.5133 35.8347 -27.4085 15.9994
O -1.6245 12.4913 2.7011 0 0 0 -71.5826 0.312825 -15.4406 15.9994
O -2.84749 11.3963 4.96466 0 0 0 4.8533 65.3138 13.1759 15.9994
O 1.16352 10.3991 1.05976 0 0 0 -68.9071 -20.4778 47.693 15.9994
O 0.16074 12.712 0.59082 0 0 0 -4.46093 63.2899 -76.1053 15.9994
O -1.51217 9.7378 8.53943 0 0 0 84.0291 -27.5455 -40.8527 15.9994
O -1.15281 12.3687 8.85128 0 0 0 -69.1563 55.0574 24.2178 15.9994
O -2.66024 10.9136 10.5687 0 0 0 -11.8998 69.8963 6.46789 15.9994
O -0.21824 11.6257 4.68732 0 0 0 27.1302 62.8557 -25.8938 15.9994
O 0.81737 12.0162 7.04239 0 0 0 65.2907 -28.2538 46.1014 15.9994
O 2.09205 7.2574 13.3571 0 0 0 -9.68408 -36.4074 -62.6058 15.9994
O 3.66149 8.12532 11.4741 0 0 0 33.8006 70.4961 -50.9384 15.9994
O -1.44364 9.11308 14.0558 0 0 0 78.4549 -61.0761 -9.49523 15.9994
O 0.56657 10.1261 15.5691 0 0 0 27.5977 -66.9088 -33.1632 15.9994
O -0.91264 11.7031 13.9532 0 0 0 -82.6074 13.0575 -15.9209 15.9994
O -1.8392 10.6605 16.2019 0 0 0 10.6362 16.3569 76.279 15.9994
O 0.067 10.7055 10.4387 0 0 0 11.9457 -65.475 -17.3053 15.9994
O 1.63683 9.67547 12.222 0 0 0 -82.5738 -23.1623 30.4338 15.9994
O 1.0651 12.2889 12.3471 0 0 0 66.5862 51.4737 10.9212 15.9994
O 8.86402 0.43685 2.99875 0 0 0 54.1098 -55.041 10.5095 15.9994
O 7.64054 2.12311 4.75984 0 0 0 -47.7631 60.0512 -48.3858 15.9994
O 13.2206 1.8234 15.8776 0 0 0 -8.83344 71.4365 -9.00116 15.9994
O 11.9433 0.4139 0.60965 0 0 0 -17.1138 -76.7564 -28.9567 15.9994
O 14.0768 1.05506 8.03606 0 0 0 59.4317 31.6105 -70.6972 15.9994
O 9.09295 0.75212 8.47788 0 0 0 82.6234 9.976 -43.4638 15.9994
O 7.71688 1.95827 10.3151 0 0 0 -54.654 43.5313 -49.7315 15.9994
O 10.1611 1.469 5.12435 0 0 0 -13.2156 -58.173 48.9159 15.9994
O 12.282 0.33071 6.19868 0 0 0 -13.8682 -35.4916 -54.6003 15.9994
O 14.2861 0.4305 13.8235 0 0 0 71.8658 -22.8822 -16.4223 15.9994
O 8.79669 0.51703 14.3156 0 0 0 -19.9176 -23.3525 36.6593 15.9994
O 10.7435 1.06264 16.0183 0 0 0 -11.4405 -85.8728 -7.73086 15.9994
O 8.42568 2.22855 16.3412 0 0 0 -13.6508 90.2175 -4.76383 15.9994
O 12.8402 2.21349 10.1106 0 0 0 -46.1382 64.4531 -49.421 15.9994
O 10.3192 1.34191 10.761 0 0 0 -36.6181 -69.8696 33.6028 15.9994
O 12.328 0.52217 12.088 0 0 0 -53.3898 -35.6635 1.74834 15.9994
O 9.38004 2.96139 2.97193 0 0 0 -71.243 35.611 -12.5651 15.9994
O 11.3538 2.9129 1.22602 0 0 0 74.3621 12.8802 40.8742 15.9994
O 11.0644 4.85417 3.11801 0 0 0 24.8701 -5.19111 69.1547 15.9994
O 10.5827 6.17601 16.2163 0 0 0 -11.8563 71.1627 33.0715 15.9994
O 9.57861 4.75343 0.89163 0 0 0 -12.7866 -51.2112 -79.7633 15.9994
O 9.70592 3.30991 9.22643 0 0 0 -28.1694 58.1316 23.0048 15.9994
O 11.4601 2.47905 7.39998 0 0 0 20.668 -26.543 49.1265 15.9994
O 11.7133 4.93997 8.5409 0 0 0 73.06 -12.5063 -50.6386 15.9994
O 6.43422 5.01681 8.79036 0 0 0 28.8444 -49.4801 43.8249 15.9994
O 5.78653 7.24279 10.1055 0 0 0 -2.89502 48.2158 4.86337 15.9994
O 10.7504 7.2764 4.34662 0 0 0 4.83609 101.66 -0.73403 15.9994
O 9.85158 2.93765 14.2298 0 0 0 -32.8339 33.4709 11.966 15.9994
O 11.6676 3.07819 12.2915 0 0 0 82.6517 33.7517 10.6173 15.9994
O 11.3468 5.11313 13.9468 0 0 0 56.3864 24.468 -56.0115 15.9994
O 10.8181 6.45156 10.5423 0 0 0 16.6352 75.3496 42.9795 15.9994
O 8.23194 6.17371 10.2467 0 0 0 3.45797 -49.5828 12.5026 15.9994
O 9.52852 4.63976 12.1031 0 0 0 -63.7785 -37.7627 -25.0035 15.9994
O 8.43802 7.0677 1.47293 0 0 0 -9.09688 -21.6691 62.9276 15.9994
O 8.58192 9.14731 3.08138 0 0 0 32.068 -49.9062 32.3573 15.9994
O 3.26806 10.2796 2.71961 0 0 0 62.8684 -28.5708 -19.2521 15.9994
O 3.92466 12.8257 3.1571 0 0 0 -24.3594 83.3549 31.4066 15.9994
O 2.41699 11.6176 4.91322 0 0 0 9.11866 75.5392 44.0564 15.9994
O 7.32496 7.3815 7.98179 0 0 0 2.72151 -60.9595 -68.5001 15.9994
O 8.46147 8.41317 5.77582 0 0 0 32.6288 2.535 -56.0153 15.9994
O 8.72254 9.58447 8.21545 0 0 0 77.7412 3.41951 -51.3236 15.9994
O 4.10475 12.6236 8.64273 0 0 0 -55.0875 45.2841 36.5945 15.9994
O 2.73391 11.4519 10.5908 0 0 0 39.543 66.7776 20.6045 15.9994
O 7.55278 11.0066 4.84733 0 0 0 19.2876 76.145 -12.6575 15.9994
O 4.91702 10.7774 4.72927 0 0 0 -4.74087 -76.6029 -17.9886 15.9994
O 6.40526 9.61181 6.76063 0 0 0 -70.5721 -27.6978 32.3726 15.9994
O 6.00138 12.1657 6.74 0 0 0 84.3168 27.3077 30.0101 15.9994
O 3.55284 9.36848 13.9443 0 0 0 41.0581 -48.8879 49.4099 15.9994
O 4.11482 11.9682 13.7505 0 0 0 -76.948 18.4334 -7.42833 15.9994
O 2.87735 11.1364 15.9436 0 0 0 37.4212 90.7678 45.3121 15.9994
O 7.86058 10.8956 10.3313 0 0 0 8.28687 86.0231 18.8339 15.9994
O 5.22471 10.5712 9.90717 0 0 0 19.6154 -87.0026 -48.4528 15.9994
O 6.00249 12.1514 11.8311 0 0 0 49.2665 50.5543 -50.9706 15.9994
H 0.89966 4.6335 3.69753 0 0 0 -25.2101 -8.51455 -6.25817 1.00794
H -0.4918 3.58711 3.39665 0 0 0 -0.550303 7.77731 3.1011 1.00794
H 1.05599 3.20236 2.64486 0 0 0 2.5193 -4.05838 -1.97889 1.00794
H 0.92332 0.31112 8.70955 0 0 0 10.3725 -18.106 -19.1601 1.00794
H 0.8382 -0.1644 7.03897 0 0 0 4.26777 -10.0947 35.837 1.00794
H 1.52199 1.42629 7.46199 0 0 0 14.938 -3.43512 14.6326 1.00794
H 1.00507 0.02845 5.16344 0 0 0 8.58723 3.20388 -32.7566 1.00794
H 0.39106 0.59136 3.6083 0 0 0 -36.3696 58.8355 40.533 1.00794
H 14.8623 0.64361 5.03417 0 0 0 -2.60997 2.27123 5.86055 1.00794
H 8.80682 10.5501 13.7693 0 0 0 10.1325 -1.81955 -3.06375 1.00794
H 7.49746 11.6432 13.2351 0 0 0 35.2125 0.0632664 38.377 1.00794
H -7.14714 11.975 14.7192 0 0 0 -17.2751 7.03779 -4.42481 1.00794
H 1.28269 0.71529 15.466 0 0 0 -19.3674 0.422747 -0.933671 1.00794
H 15.5704 -0.07517 16.4771 0 0 0 -1.9474 4.85252 -7.06562 1.00794
H 0.606109 1.5721 16.8648 0 0 0 -6.62739 10.7098 -2.66741 1.00794
H -1.45566 6.99281 3.79523 0 0 0 -1.53109 -3.81558 -2.72138 1.00794
H -1.68754 5.49662 2.87278 0 0 0 5.09612 -0.511728 1.49855 1.00794
H -1.87198 5.48043 4.62438 0 0 0 -21.0149 -0.449286 -30.3177 1.00794
H -3.61576 6.43288 0.92562 0 0 0 -6.70878 -7.90677 24.8197 1.00794
H -3.12412 7.97243 1.63071 0 0 0 -30.503 -27.4857 16.8896 1.00794
H 10.6743 7.60468 1.47205 0 0 0 7.20709 1.65231 20.2931 1.00794
H -0.29492 5.39644 1.09905 0 0 0 3.65227 2.58024 2.72749 1.00794
H 0.69484 4.00551 16.442 0 0 0 5.38187 1.23536 -5.68055 1.00794
H -1.51316 4.39387 0.2721 0 0 0 -6.59092 -0.46964 2.27977 1.00794
H -0.13508 8.49457 0.14877 0 0 0 2.88364 -1.00334 -0.512744 1.00794
H -1.17233 7.84689 1.42656 0 0 0 22.7459 -25.0463 -3.49929 1.00794
H -1.83986 8.94518 0.18382 0 0 0 -3.9409 -2.76452 -14.7927 1.00794
H -1.30143 6.18059 7.64733 0 0 0 -9.19988 -22.1188 -2.55886 1.00794
H -1.94767 4.93184 6.58532 0 0 0 -4.81025 -2.79155 13.3886 1.00794
H -0.55991 5.91259 6.04922 0 0 0 32.9267 -42.0323 4.42205 1.00794
H -6.91284 11.4384 1.69269 0 0 0 7.27194 16.8458 15.5201 1.00794
H -5.37197 11.9116 2.4091 0 0 0 -13.1467 -25.442 22.1073 1.00794
H -6.84895 12.7598 2.86326 0 0 0 33.7775 -73.7212 -39.6127 1.00794
H -3.51761 9.97393 1.58509 0 0 0 -26.8791 30.8772 -32.8769 1.00794
H -4.23891 9.14566 0.19078 0 0 0 1.3789 11.4939 -16.5389 1.00794
H -5.26371 9.98227 1.36321 0 0 0 12.2318 3.03253 -4.72009 1.00794
H 4.80707 0.41365 0.35661 0 0 0 -2.85914 -33.5469 38.425 1.00794
H -3.59857 12.817 1.76004 0 0 0 1.54999 -24.4177 -69.4657 1.00794
H 3.1902 -0.02964 0.95213 0 0 0 2.69049 -20.0484 -11.0026 1.00794
H -4.81633 9.91009 14.907 0 0 0 1.49941 -4.24097 2.23555 1.00794
H -4.12353 11.4674 14.4238 0 0 0 14.128 -13.4694 11.1564 1.00794
H -5.46485 11.4074 15.5884 0 0 0 19.4336 -3.07748 24.1183 1.00794
H -1.80531 9.12846 5.52719 0 0 0 -0.0887014 -8.65703 17.5398 1.00794
H -2.68643 7.60633 5.65903 0 0 0 -1.62098 2.36935 9.15929 1.00794
H -0.99616 7.71536 6.21258 0 0 0 -8.62171 54.2129 4.42413 1.00794
H 4.53225 0.06069 3.45069 0 0 0 -0.241252 26.3748 63.0747 1.00794
H 2.94905 0.62921 2.89499 0 0 0 3.9893 28.799 12.2469 1.00794
H -5.15335 13.2212 4.46425 0 0 0 -1.14275 5.27416 1.1992 1.00794
H 3.21775 3.74981 2.97095 0 0 0 1.5393 -0.166266 -3.49737 1.00794
H 4.74906 3.03119 2.5001 0 0 0 -15.1148 -12.7646 15.1505 1.00794
H 4.70985 4.28054 3.75762 0 0 0 -11.3277 -31.3233 5.72792 1.00794
H 7.84298 4.73058 2.17044 0 0 0 -37.6873 -10.0008 21.5383 1.00794
H 6.81029 3.64667 3.0579 0 0 0 2.21388 -0.207702 3.1124 1.00794
H 6.10386 4.81268 1.92511 0 0 0 3.31063 9.25519 -1.14081 1.00794
H 2.34739 1.42368 13.7863 0 0 0 5.47557 1.81684 6.13983 1.00794
H 3.99753 1.01568 13.2925 0 0 0 -1.1021 -1.05286 -13.5619 1.00794
H 3.31208 0.32096 14.7883 0 0 0 -41.33 -22.0494 -14.2969 1.00794
H 6.61101 0.38883 15.7339 0 0 0 7.60345 -4.50875 -9.6117 1.00794
H 6.04738 1.10952 14.2287 0 0 0 -5.87832 4.06795 13.2621 1.00794
H 5.1935 -0.2584 14.921 0 0 0 16.8971 0.0868946 6.3756 1.00794
H 3.91028 3.15913 14.036 0 0 0 -7.22002 -4.35114 -1.70369 1.00794
H 5.16824 4.0953 14.8725 0 0 0 -7.33131 -13.3651 21.5009 1.00794
H 3.51178 4.03096 15.5058 0 0 0 -2.46484 -6.43598 2.87407 1.00794
H 2.09807 1.39923 0.03356 0 0 0 9.86805 0.210627 -3.28039 1.00794
H 1.99868 3.15271 0.25568 0 0 0 0.197286 5.83372 2.05775 1.00794
H 3.03091 2.17523 1.3208 0 0 0 -2.64476 1.18426 -1.2313 1.00794
H 7.04381 4.00758 12.1392 0 0 0 0.294038 5.23642 -4.70894 1.00794
H 7.59633 2.94239 13.4291 0 0 0 -4.40641 -3.16977 -1.02957 1.00794
H 5.86058 3.27483 13.2419 0 0 0 19.6562 -14.5815 -35.2467 1.00794
H 4.26977 5.23997 0.61975 0 0 0 -0.361509 10.5369 -4.02371 1.00794
H 2.59122 5.45982 1.12421 0 0 0 -6.89315 -0.647466 -0.167602 1.00794
H 3.87936 6.39825 1.89904 0 0 0 -4.50594 1.22856 0.908446 1.00794
H 4.94046 7.65352 14.5831 0 0 0 4.58086 -6.82896 -1.19648 1.00794
H 5.55575 6.00275 14.8475 0 0 0 2.20924 18.1427 -1.00228 1.00794
H 6.14815 7.34983 15.8381 0 0 0 -7.94096 3.0793 4.28553 1.00794
H 0.97575 7.407 7.54264 0 0 0 3.76767 -26.2293 7.95251 1.00794
H 1.20507 8.26838 9.07999 0 0 0 -1.53092 -0.278632 7.0559 1.00794
H -0.16737 7.18235 8.87291 0 0 0 9.56801 7.86024 11.9753 1.00794
H 2.31231 4.16979 10.7296 0 0 0 3.49679 21.5106 8.43849 1.00794
H 0.57315 4.4599 10.6208 0 0 0 6.82835 1.40018 -26.4619 1.00794
H 1.62032 5.54445 11.6053 0 0 0 12.3867 7.6063 -11.3073 1.00794
H -0.04433 8.03911 12.4179 0 0 0 -1.4318 -2.21874 1.11253 1.00794
H 0.82484 7.36304 11.0391 0 0 0 -9.17889 5.98365 22.1887 1.00794
H -0.68155 8.24057 10.7917 0 0 0 -2.3663 3.70567 0.935771 1.00794
H 2.60335 5.49396 4.1093 0 0 0 23.8117 12.761 1.61618 1.00794
H 1.91442 6.58285 5.33255 0 0 0 -3.84019 2.90998 2.71886 1.00794
H 2.13054 4.85814 5.70181 0 0 0 9.49817 11.9369 0.799169 1.00794
H 4.14669 8.41301 6.18461 0 0 0 4.86844 -3.41006 -5.8962 1.00794
H 4.86937 7.74873 7.64768 0 0 0 6.86816 -8.9487 0.836843 1.00794
H 3.1299 7.59728 7.37752 0 0 0 5.19241 -28.0275 -31.3438 1.00794
H 4.56929 7.34809 3.90952 0 0 0 -1.01237 1.30031 -0.251074 1.00794
H 5.6661 5.96819 3.70321 0 0 0 4.09757 9.87572 6.99975 1.00794
H 6.10823 7.32835 4.75833 0 0 0 -2.31346 7.37028 9.32595 1.00794
H 5.38615 5.70469 12.6035 0 0 0 3.4934 4.63577 1.25035 1.00794
H 4.87522 4.53035 11.3736 0 0 0 -1.53037 -2.79697 -6.84995 1.00794
H 3.6855 5.19443 12.5084 0 0 0 -3.67045 2.67575 1.07973 1.00794
H 2.27221 7.54883 3.2992 0 0 0 5.50358 5.84021 -2.70845 1.00794
H 1.14805 7.24955 1.95612 0 0 0 -1.97051 -2.57751 -5.09772 1.00794
H 0.69715 8.3501 3.26047 0 0 0 53.6652 -24.8139 -44.7972 1.00794
H -1.25611 9.78368 2.07854 0 0 0 4.34389 30.4643 13.2405 1.00794
H -2.63163 9.27632 3.10857 0 0 0 12.7478 -1.55048 41.8159 1.00794
H -0.98039 8.99942 3.63825 0 0 0 -46.6926 30.1958 0.696781 1.00794
H 2.04127 8.98234 6.01084 0 0 0 -3.7769 3.00761 -10.6136 1.00794
H 0.54025 8.8627 5.0812 0 0 0 4.81028 10.3307 32.9798 1.00794
H 0.47222 9.14838 6.82507 0 0 0 -5.64915 31.4628 -4.20247 1.00794
H 13.5732 2.42854 1.81052 0 0 0 4.489 2.8211 -1.4904 1.00794
H -0.5104 1.37686 1.84102 0 0 0 1.6509 -1.78542 -0.888787 1.00794
H 14.0652 1.63188 3.30893 0 0 0 -1.85199 -14.8962 -14.3006 1.00794
H 6.64885 12.2425 0.67587 0 0 0 2.7919 6.41258 6.1398 1.00794
H 5.42003 11.0875 1.25407 0 0 0 -5.99451 9.33864 13.8049 1.00794
H 6.4767 11.9142 2.40558 0 0 0 -2.72169 -4.72773 0.837723 1.00794
H 12.5514 2.7586 3.84036 0 0 0 -25.9206 7.51771 6.66535 1.00794
H 13.6333 2.90804 5.26444 0 0 0 -5.71939 -2.53326 -0.019287 1.00794
H 12.2062 3.94198 5.08645 0 0 0 -5.27508 -2.14867 5.1213 1.00794
H 8.23178 4.44466 15.2426 0 0 0 1.61688 1.56655 -3.27061 1.00794
H 7.8501 6.13836 15.5673 0 0 0 5.11986 -3.29886 -5.89249 1.00794
H 7.10511 4.86291 16.5541 0 0 0 -2.12147 3.02233 7.34743 1.00794
H 7.4878 5.59769 5.22717 0 0 0 -0.497406 -2.50418 8.59898 1.00794
H 8.80988 5.02273 4.20073 0 0 0 -4.98236 3.21761 -4.62186 1.00794
H 7.86377 6.42599 3.69991 0 0 0 2.78508 -0.471654 0.571043 1.00794
H 9.02621 3.30077 6.39376 0 0 0 4.11178 7.78978 3.03225 1.00794
H 10.063 4.56515 5.73995 0 0 0 25.6207 -23.3028 11.8508 1.00794
H 8.75957 4.94614 6.91439 0 0 0 -10.0214 -11.0469 21.0249 1.00794
H 11.2345 6.37862 6.88735 0 0 0 3.20394 5.35171 -28.2993 1.00794
H 9.73801 6.6206 7.83654 0 0 0 -10.8925 2.45677 2.18156 1.00794
H 10.5842 8.0051 7.17622 0 0 0 -37.3758 -26.3768 -2.32255 1.00794
H 9.08838 8.38537 12.2311 0 0 0 2.87712 3.14093 -4.86786 1.00794
H 9.83844 7.35951 13.4626 0 0 0 -7.02145 -1.81098 -5.14406 1.00794
H 8.10694 7.17999 13.1083 0 0 0 -4.87444 -4.27087 3.12339 1.00794
H 5.69455 7.46818 2.02979 0 0 0 11.9244 -0.0156632 -11.0487 1.00794
H 5.49231 8.95768 1.10686 0 0 0 4.24426 -4.4088 -1.2712 1.00794
H 5.67156 9.03227 2.8652 0 0 0 7.44007 8.05812 6.25233 1.00794
H 9.70198 8.65504 16.5286 0 0 0 -1.94081 -8.39047 -2.76682 1.00794
H 7.90019 10.5536 0.08132 0 0 0 -5.63298 -7.17695 -11.6048 1.00794
H 7.97237 8.39108 16.295 0 0 0 6.18247 4.03917 -4.68467 1.00794
H 3.47466 10.0485 7.24858 0 0 0 7.05813 22.3497 3.33917 1.00794
H 1.95837 10.3097 8.14939 0 0 0 0.593169 -2.91582 14.1663 1.00794
H 3.09098 9.02619 8.64252 0 0 0 4.90086 28.844 34.24 1.00794
H 6.06241 11.3063 15.9017 0 0 0 -5.41944 6.89428 -14.0917 1.00794
H 6.29321 9.96016 14.7734 0 0 0 0.87199 -0.211541 5.97583 1.00794
H 5.54506 9.66163 16.3558 0 0 0 -7.73336 -7.32954 -11.0879 1.00794
H 6.64766 8.42435 11.66 0 0 0 15.7307 13.4592 17.746 1.00794
H 5.52091 9.22731 12.7548 0 0 0 9.04817 2.46805 -5.76915 1.00794
H 7.26819 9.48489 12.9346 0 0 0 -6.38981 -11.7797 -6.94717 1.00794
366
Timestep=90 Time=90.000000 pbc="T T T" Lattice="15.5086 0 0 -8.25388 13.4224 0 0.616249 -0.649062 16.909" Potential_energy=815.5903827067789 Temperature=0 Stress="29428.079280824975 5497.810826722604 -2906.9715905796893 5497.810826722604 35136.07756689643 -6748.4354696304035 -2906.9715905796893 -6748.4354696304035 23575.339428103296" Properties=species:S:1:pos:R:3:vel:R:3:forces:R:3:mass:R:1
Si -5.19876 12.8706 7.85544 0 0 0 -0.25816 -0.490334 -0.871508 28.0855
Si 14.0749 1.95945 9.54077 0 0 0 0.798341 1.09108 -0.804281 28.0855
Si 0.926134 2.54927 5.34326 0 0 0 0.585659 0.0720981 -0.664766 28.0855
Si -5.75648 12.6057 12.5999 0 0 0 0.391915 -0.215856 -0.147908 28.0855
Si 14.5135 1.56571 15.1066 0 0 0 0.873073 0.403506 0.153847 28.0855
Si 1.19119 1.47999 11.0641 0 0 0 -0.389161 1.01616 0.0366858 28.0855
Si 11.7154 5.98103 3.18216 0 0 0 -1.23339 -0.0245951 1.49275 28.0855
Si -0.804359 5.92988 15.9982 0 0 0 -0.119522 0.652092 -0.107573 28.0855
Si 0.0103055 3.9649 7.81134 0 0 0 0.183082 0.430849 -0.345898 28.0855
Si -3.52175 6.29505 9.5672 0 0 0 0.12807 -0.359512 0.142799 28.0855
Si 0.297338 3.69715 13.157 0 0 0 -0.570528 -0.899877 0.148829 28.0855
Si -3.64184 6.23332 15.1656 0 0 0 -0.350635 -0.295319 -0.78186 28.0855
Si -1.26723 6.1983 11.5765 0 0 0 0.249882 0.473989 -0.201642 28.0855
Si 8.96415 10.6598 3.92982 0 0 0 0.270359 -0.014699 0.184889 28.0855
Si -3.18684 10.5813 16.5873 0 0 0 -0.535641 1.00334 0.0296329 28.0855
Si -2.80444 8.95868 7.82839 0 0 0 0.00948934 -0.80868 0.197126 28.0855
Si -6.22256 10.4364 9.36702 0 0 0 2.12674 1.86568 3.53569 28.0855
Si -4.00728 11.0593 5.76102 0 0 0 -0.678785 -0.467847 -0.551265 28.0855
Si -2.62683 8.35217 13.3994 0 0 0 0.885194 1.34807 -0.632654 28.0855
Si -3.94551 10.3317 11.495 0 0 0 4.77872 1.2385 0.299291 28.0855
Si 7.5591 0.176572 1.81011 0 0 0 0.76301 -0.417434 -0.208882 28.0855
Si 3.86714 2.05134 4.9127 0 0 0 0.165596 -0.332232 -0.214052 28.0855
Si 6.91322 2.85665 0.534898 0 0 0 -1.28899 0.150677 -1.00348 28.0855
Si -0.119589 12.9644 7.87239 0 0 0 0.832442 0.726865 -1.00042 28.0855
Si 3.84305 1.90557 9.43068 0 0 0 -0.565953 0.0263196 0.392976 28.0855
Si 6.59943 1.62964 6.13282 0 0 0 0.498566 0.381373 -0.67694 28.0855
Si 8.00943 -0.370615 13.2189 0 0 0 0.622211 -0.624568 -0.44968 28.0855
Si 4.94333 2.27634 15.9469 0 0 0 0.21247 0.30162 0.879834 28.0855
Si 6.39709 1.52304 11.3214 0 0 0 0.0519832 -0.371567 0.111113 28.0855
Si 3.79646 6.94267 16.4791 0 0 0 0.171274 -0.60089 0.586202 28.0855
Si 5.60991 3.98377 7.91751 0 0 0 -0.482804 0.0454127 0.692583 28.0855
Si 2.05836 5.72986 9.15817 0 0 0 0.0103772 -0.341443 0.104944 28.0855
Si 4.30658 6.22798 5.95042 0 0 0 -0.281807 0.533169 -0.245299 28.0855
Si 1.5011 6.27568 14.4192 0 0 0 1.074 -0.295058 -0.237259 28.0855
Si 4.45435 7.0287 10.5968 0 0 0 -1.11166 -0.679235 0.410756 28.0855
Si 2.36339 9.52283 1.77231 0 0 0 0.079412 0.777313 -0.130188 28.0855
Si -1.37486 11.5412 4.01595 0 0 0 -0.18987 0.278025 -0.83369 28.0855
Si 1.50821 10.8685 16.7654 0 0 0 0.0379501 -0.514447 -0.823629 28.0855
Si -1.23689 10.8736 9.70207 0 0 0 3.18614 1.71866 -2.68207 28.0855
Si 1.17981 11.1707 5.65632 0 0 0 -0.508187 0.62356 0.0411283 28.0855
Si 2.77165 8.63272 12.7837 0 0 0 -0.965699 -0.544036 0.379412 28.0855
Si -0.746388 10.3731 14.8353 0 0 0 0.32589 0.303541 0.4948 28.0855
Si 1.44063 11.0473 11.514 0 0 0 1.68493 -0.197417 -0.474047 28.0855
Si 4.55256 13.2318 1.74288 0 0 0 -0.504197 0.458832 0.56191 28.0855
Si 8.90482 1.90512 4.02979 0 0 0 0.719757 -0.118504 0.00539174 28.0855
Si 12.0384 0.948208 16.6755 0 0 0 -1.16807 -0.484359 -0.31073 28.0855
Si 13.2341 -0.194624 7.50632 0 0 0 -0.325964 -0.233245 -0.17606 28.0855
Si 9.10009 1.68206 9.88767 0 0 0 -0.658972 0.16102 -0.20209 28.0855
Si 11.452 1.69738 6.03916 0 0 0 -1.0989 -0.270805 -0.114588 28.0855
Si 13.2931 -0.395228 13.0037 0 0 0 -0.167209 0.613079 -0.276213 28.0855
Si 9.60382 1.70613 15.0842 0 0 0 0.686967 0.410767 0.019341 28.0855
Si 11.6187 1.84575 11.5501 0 0 0 0.748662 -0.0895635 -0.404562 28.0855
Si 10.3134 3.67159 1.84623 0 0 0 -0.210652 -0.157923 -0.535922 28.0855
Si 9.05177 6.16496 0.2453 0 0 0 -0.363228 0.142876 -0.292845 28.0855
Si 10.5841 3.65465 8.24618 0 0 0 0.341662 0.563027 -0.330638 28.0855
Si 7.05404 6.42757 9.16025 0 0 0 0.600057 1.69318 0.578899 28.0855
Si 9.3178 6.75694 5.15066 0 0 0 0.0875586 -0.0593149 0.102648 28.0855
Si 10.4849 4.15561 13.1971 0 0 0 1.01932 1.06302 0.839164 28.0855
Si 9.39542 6.07 11.2822 0 0 0 -0.451162 0.643164 0.217272 28.0855
Si 7.87723 8.52383 1.73672 0 0 0 -0.399439 -0.690576 0.108825 28.0855
Si 3.7125 11.3894 3.97436 0 0 0 -0.542051 -0.52246 -0.0868001 28.0855
Si 7.74945 8.5802 6.97891 0 0 0 3.20934 2.13101 1.96243 28.0855
Si 3.81023 11.3262 9.49894 0 0 0 0.0914145 -0.0230069 -0.71615 28.0855
Si 6.42022 11.0159 5.76564 0 0 0 1.1844 -0.373101 0.130555 28.0855
Si 3.95749 10.7371 14.7413 0 0 0 -0.440053 -0.721925 -0.388646 28.0855
Si 6.45134 11.1071 10.8255 0 0 0 0.264501 0.214434 -1.06287 28.0855
C 0.545825 3.73519 3.9455 0 0 0 0.0176136 -0.161233 0.68103 12.0107
C 1.35383 0.0745659 7.87366 0 0 0 0.15343 0.169931 0.0297195 12.0107
C 0.468909 0.918465 4.7253 0 0 0 -0.239403 -0.482165 -0.331197 12.0107
C -6.83602 11.5094 13.6008 0 0 0 0.035802 -0.0265021 -0.510225 12.0107
C 0.469731 1.38339 16.2369 0 0 0 0.896934 0.219142 -0.175582 12.0107
C -2.05799 6.04956 3.81914 0 0 0 0.165663 0.669355 0.201629 12.0107
C -3.63608 7.14152 1.88762 0 0 0 0.0842015 1.55039 -1.31198 12.0107
C 0.121615 4.58531 16.9116 0 0 0 -0.680271 0.103868 0.365933 12.0107
C -1.26301 7.9875 0.266615 0 0 0 -0.460205 0.176207 -0.726168 12.0107