274
Timestep=0 Time=0.000000 pbc="T T T" Lattice="15.6239 0 0 -8.37975 12.4108 0 1.195 0.431155 16.0755" Potential_energy=860.8763405085103 Temperature=0 Stress="81098.7333375235 -2983.3394568210733 -5534.250484646738 -2983.3394568210733 85252.44142830883 5379.746032215597 -5534.250484646738 5379.746032215597 80730.26774343506" Properties=species:S:1:pos:R:3:vel:R:3:forces:R:3:mass:R:1
Si -6.41153 12.3203 1.77975 0 0 0 83.7773 -21.3381 13.3542 28.0855
Si -0.71756 2.13503 3.83035 0 0 0 -34.4887 51.5729 24.1938 28.0855
Si 0.57589 2.1565 0.11071 0 0 0 23.6425 13.8366 -42.4768 28.0855
Si -0.69258 2.42369 9.35591 0 0 0 27.1639 59.7752 27.4488 28.0855
Si 1.95387 2.62115 5.29861 0 0 0 -8.46499 5.08885 29.8694 28.0855
Si 14.8926 2.8027 14.5023 0 0 0 -3.95379 -15.2421 -34.492 28.0855
Si 2.01432 2.26715 10.7397 0 0 0 9.39917 6.61202 -7.76433 28.0855
Si -0.04622 4.44601 1.89452 0 0 0 -27.1291 34.5681 -8.8909 28.0855
Si 0.42302 4.47021 7.26917 0 0 0 -2.707 28.912 7.64477 28.0855
Si 12.031 6.29304 9.10173 0 0 0 2.31337 29.242 -12.6592 28.0855
Si -0.87062 6.59725 5.49486 0 0 0 -30.5838 -46.3359 -50.4339 28.0855
Si 0.78813 4.65295 12.5106 0 0 0 16.4589 36.584 -7.83396 28.0855
Si 11.7077 6.12253 14.7914 0 0 0 -15.5516 56.1929 7.48565 28.0855
Si -0.82445 6.60191 10.6488 0 0 0 -5.73706 21.1088 25.8201 28.0855
Si 8.43477 10.2988 4.05955 0 0 0 30.4726 -43.6982 26.9477 28.0855
Si -4.1012 10.6942 15.7 0 0 0 21.4169 -43.6343 4.56478 28.0855
Si -2.75809 8.42404 7.06495 0 0 0 -2.97165 1.85849 12.9955 28.0855
Si -4.19316 10.1484 4.89131 0 0 0 33.02 89.6567 44.7809 28.0855
Si -2.44849 8.11496 12.7976 0 0 0 -52.9641 37.1578 -25.4932 28.0855
Si 7.12762 0.35295 2.03504 0 0 0 38.0581 7.1778 28.0623 28.0855
Si 7.58489 2.50218 15.6863 0 0 0 -18.8074 -5.83007 -30.4611 28.0855
Si 6.78877 0.23406 7.20908 0 0 0 37.9715 14.5621 -12.4267 28.0855
Si 4.52756 3.22732 9.1819 0 0 0 80.7659 -73.8101 -16.4638 28.0855
Si 6.10014 2.46784 5.20468 0 0 0 63.6248 -5.44796 21.5691 28.0855
Si -0.69067 12.4896 11.8976 0 0 0 46.7803 28.34 -7.90152 28.0855
Si 6.96841 2.95695 11.0024 0 0 0 37.5569 -34.5973 -1.26242 28.0855
Si 5.63669 4.8204 0.51162 0 0 0 -49.2186 -23.2879 36.4168 28.0855
Si 1.57077 6.54719 3.5974 0 0 0 -22.8627 26.8084 -20.3008 28.0855
Si 4.66177 6.67337 15.0635 0 0 0 -6.16809 14.8638 -29.8827 28.0855
Si 5.45773 5.04968 6.94736 0 0 0 63.5524 -34.2619 2.02607 28.0855
Si 1.76367 6.58175 9.18072 0 0 0 -11.9728 37.2402 -9.73152 28.0855
Si 4.41842 6.90265 4.75906 0 0 0 -19.8539 21.5322 -1.30216 28.0855
Si 4.12174 6.52184 11.0921 0 0 0 7.06051 -20.7963 4.88154 28.0855
Si 2.72847 8.20037 1.35767 0 0 0 59.7843 11.533 1.7668 28.0855
Si -1.66069 9.97457 2.93756 0 0 0 -6.15955 37.903 24.158 28.0855
Si -2.82634 10.6318 9.17365 0 0 0 -23.5502 -19.423 9.76115 28.0855
Si 0.20469 11.0471 5.30331 0 0 0 -8.36957 59.3935 18.718 28.0855
Si 3.54517 9.46474 12.2007 0 0 0 -44.1052 -28.2649 41.8309 28.0855
Si -1.46695 10.6565 14.2328 0 0 0 19.611 -5.35231 -35.88 28.0855
Si 4.78109 12.4255 2.34108 0 0 0 -33.0055 22.7236 34.1305 28.0855
Si 5.25738 12.4352 7.98326 0 0 0 -9.06768 -21.6157 -4.74428 28.0855
Si 8.96338 2.1209 8.69984 0 0 0 12.0125 -15.8807 39.0539 28.0855
Si 12.6595 1.98401 5.8533 0 0 0 -49.8649 -12.3253 -43.6733 28.0855
Si 9.78055 1.57292 13.6375 0 0 0 -14.9967 30.2424 -17.9512 28.0855
Si 6.90894 5.80607 3.0263 0 0 0 -2.07841 -71.5066 26.6732 28.0855
Si 10.9235 4.08281 7.31179 0 0 0 7.10406 10.7726 -22.3736 28.0855
Si 10.7267 4.26309 12.6646 0 0 0 55.6549 10.4192 8.56629 28.0855
Si 9.81481 6.91628 11.2435 0 0 0 21.0073 4.27512 15.2613 28.0855
Si 7.31964 11.1398 16.0055 0 0 0 66.5453 -26.2137 -30.9788 28.0855
Si 7.50005 10.5633 6.97745 0 0 0 -19.7546 -52.4223 -6.94545 28.0855
Si 6.34425 10.2017 13.2355 0 0 0 58.6809 -51.3736 -13.8395 28.0855
C 3.50405 0.53187 2.57022 0 0 0 13.111 4.22377 -0.141608 12.0107
C 2.78025 2.35068 14.6602 0 0 0 0.270956 -5.04099 -10.3837 12.0107
C 2.42055 1.33212 6.539 0 0 0 3.07724 -5.29845 5.11346 12.0107
C 14.8674 1.35617 13.3427 0 0 0 0.859089 -5.50738 -3.49617 12.0107
C 2.85495 0.79461 11.4756 0 0 0 7.78667 -10.764 -0.359192 12.0107
C 11.6005 5.29673 0.17001 0 0 0 4.23665 -3.24902 5.20391 12.0107
C -5.04106 8.80508 0.7472 0 0 0 -1.63142 -6.90909 -0.718887 12.0107
C -5.13637 10.3425 14.1903 0 0 0 -3.58948 -4.98845 -5.56588 12.0107
C 8.92007 0.55187 1.64759 0 0 0 2.45563 3.55889 -1.148 12.0107
C 6.04267 2.24839 14.7264 0 0 0 -8.86955 -1.99135 -4.11542 12.0107
C 4.28755 4.0909 1.55217 0 0 0 -12.3387 -5.92377 10.8003 12.0107
C 7.16582 5.60799 7.36098 0 0 0 11.0252 -0.0459075 -2.74188 12.0107
C 2.73553 7.81892 8.22547 0 0 0 7.19925 3.35061 -10.7942 12.0107
C 2.15316 9.73705 0.51343 0 0 0 -0.770462 6.06843 -8.32344 12.0107
C -1.46865 8.36893 2.05169 0 0 0 0.883808 -11.8257 -0.542271 12.0107
C 1.37916 9.90908 6.1522 0 0 0 5.96028 4.07673 0.101292 12.0107
C 9.45278 0.23419 4.92497 0 0 0 8.66283 1.90988 7.89872 12.0107
C 2.44501 10.3734 11.0309 0 0 0 -7.43614 3.38028 -4.48577 12.0107
C 0.22846 10.6842 14.9448 0 0 0 2.93661 2.25466 3.85651 12.0107
C 12.0359 1.37758 1.76349 0 0 0 -3.39283 0.912773 3.8066 12.0107
C 4.0965 11.1282 3.49459 0 0 0 -3.26781 -4.23388 -0.901345 12.0107
C 10.3441 1.1877 9.50181 0 0 0 8.95328 -5.51962 4.81668 12.0107
C 11.45 0.93601 14.0876 0 0 0 14.1812 -1.63138 0.586809 12.0107
C 8.58925 6.54521 3.25486 0 0 0 9.88288 1.24414 -0.173876 12.0107
C 10.5723 5.18065 5.86696 0 0 0 2.00829 6.90205 -6.50549 12.0107
C 12.258 3.7864 11.7695 0 0 0 6.06599 -3.26999 -2.1197 12.0107
C 8.14685 7.16418 10.4854 0 0 0 -6.77937 4.49823 -0.204651 12.0107
C 6.76791 9.14502 0.69533 0 0 0 -0.540906 -5.664 9.11606 12.0107
C 6.32424 9.12666 6.95913 0 0 0 -3.34725 -9.31446 2.50162 12.0107
C 9.01699 10.255 7.99553 0 0 0 5.85418 -4.11864 4.22785 12.0107
O 0.95304 1.09566 1.29473 0 0 0 -53.0942 6.71278 62.243 15.9994
O 0.83706 1.98927 4.26225 0 0 0 52.724 -61.5586 -37.9673 15.9994
O 0.1674 2.44502 15.8371 0 0 0 -32.1444 -32.9621 40.9918 15.9994
O 0.67644 1.74723 9.9463 0 0 0 -0.0251726 -78.9965 -3.62282 15.9994
O -0.91513 3.38044 2.78179 0 0 0 -78.8823 8.0933 -14.9136 15.9994
O 0.80395 3.66977 0.7322 0 0 0 49.6206 21.7032 -36.6949 15.9994
O -0.3453 3.2255 7.97584 0 0 0 -43.001 -50.7977 -63.3222 15.9994
O 1.34038 3.95998 6.03595 0 0 0 38.0237 54.1167 -51.687 15.9994
O -0.70174 5.50268 6.68528 0 0 0 -66.1607 -11.7121 48.5494 15.9994
O -0.1114 4.14909 13.7788 0 0 0 -26.8245 60.3757 48.9246 15.9994
O 1.56649 3.37445 11.8609 0 0 0 43.6328 -29.8521 59.7748 15.9994
O -2.10992 6.13222 9.75923 0 0 0 20.4405 -82.7938 -21.7554 15.9994
O -0.22944 5.28538 11.3967 0 0 0 -32.8108 -69.2785 -31.0244 15.9994
O -7.23018 11.3353 2.81082 0 0 0 -79.1775 22.1497 -26.4859 15.9994
O -6.02773 11.482 0.43354 0 0 0 -42.2821 27.0192 -53.7376 15.9994
O -3.49245 7.12492 7.70715 0 0 0 -41.7728 -31.3044 -53.8929 15.9994
O -1.4902 7.9675 6.14587 0 0 0 49.243 59.9824 -19.7055 15.9994
O -5.65955 9.74143 4.29465 0 0 0 -3.69086 -77.1151 -31.6402 15.9994
O -3.87883 9.1634 6.15413 0 0 0 -74.9438 -20.9793 20.55 15.9994
O -3.05925 6.79736 13.5378 0 0 0 21.92 -76.3554 -33.8197 15.9994
O -1.25842 7.70443 11.7586 0 0 0 58.1512 59.537 11.586 15.9994
O 6.23866 1.33299 1.06924 0 0 0 -69.737 19.9317 28.3752 15.9994
O 2.99666 3.00248 9.65852 0 0 0 -61.3351 42.8844 -51.701 15.9994
O 5.90817 1.19207 6.22784 0 0 0 -82.6179 -12.8644 -4.67671 15.9994
O 5.48586 3.43074 10.4975 0 0 0 -35.5939 48.2689 49.8787 15.9994
O 6.82204 1.43164 11.5956 0 0 0 -75.392 -7.17349 20.9988 15.9994
O 7.81732 4.10871 15.9364 0 0 0 54.1884 16.2878 -18.2925 15.9994
O 1.01443 5.21211 2.86916 0 0 0 50.3858 -65.3224 14.8236 15.9994
O 0.57359 6.97281 4.82021 0 0 0 38.9741 58.854 49.2929 15.9994
O 6.19147 6.15452 15.3698 0 0 0 40.0928 15.055 -39.5493 15.9994
O 4.59945 4.57676 8.26126 0 0 0 -43.9135 52.2649 20.212 15.9994
O 5.4842 3.80648 5.89755 0 0 0 -58.9368 18.8673 -53.3804 15.9994
O 1.36391 5.23997 8.34213 0 0 0 69.5368 -58.0937 26.1566 15.9994
O 0.34744 7.25289 9.7192 0 0 0 5.3009 63.1739 -28.9231 15.9994
O 3.07237 6.21427 4.13091 0 0 0 22.9246 -84.317 -4.5215 15.9994
O 4.64045 6.28292 6.24973 0 0 0 -32.3146 43.7698 58.648 15.9994
O 2.65067 6.0976 10.4839 0 0 0 -25.0397 -39.9755 28.6407 15.9994
O 1.65686 7.79916 2.55251 0 0 0 -40.2015 53.49 -3.24679 15.9994
O 2.78432 6.9418 0.30355 0 0 0 -57.5278 -48.4449 25.1825 15.9994
O -1.73749 11.1992 1.84265 0 0 0 -16.5975 -12.3497 -55.6306 15.9994
O -3.09966 9.92097 3.71984 0 0 0 -24.0639 -40.701 -50.1426 15.9994
O -2.25232 9.37261 8.28416 0 0 0 74.4495 -4.58096 25.8017 15.9994
O -2.54729 12.0526 8.39155 0 0 0 -57.4119 53.7718 31.222 15.9994
O -0.43957 10.3112 3.9756 0 0 0 74.6388 -63.6305 -17.4945 15.9994
O -1.03784 11.3838 6.34902 0 0 0 -21.7341 -73.6474 -2.67152 15.9994
O 4.12256 8.10367 11.4969 0 0 0 61.9147 27.1829 -33.1136 15.9994
O -1.81903 9.07777 13.9461 0 0 0 24.5173 -35.7192 71.2011 15.9994
O -1.5883 11.4804 12.8078 0 0 0 -67.0111 -22.8018 -26.4591 15.9994
O -2.60887 11.2562 15.2337 0 0 0 8.47545 52.5698 44.2254 15.9994
O 14.3686 0.74511 3.20308 0 0 0 59.2364 -82.8868 -9.99072 15.9994
O 13.8384 1.24482 9.0494 0 0 0 -66.9634 5.83649 53.7626 15.9994
O 8.00593 1.0905 7.86384 0 0 0 48.4642 -36.4255 -8.11832 15.9994
O 8.03118 2.96882 9.75655 0 0 0 21.8218 78.5352 -12.4097 15.9994
O 14.0374 2.51808 5.16977 0 0 0 39.977 47.3904 37.7851 15.9994
O 12.8763 0.55199 6.62762 0 0 0 -30.9522 -55.4872 -39.0093 15.9994
O 9.06155 0.42684 12.7105 0 0 0 51.5413 -57.1752 3.05681 15.9994
O 8.9094 1.85254 14.9849 0 0 0 38.4037 -37.026 55.2977 15.9994
O 6.57952 5.81586 1.41626 0 0 0 22.034 45.0635 -27.0464 15.9994
O 5.73455 6.63706 3.83303 0 0 0 35.5385 68.5374 -20.0998 15.9994
O 9.56783 3.21642 7.63793 0 0 0 -48.2909 6.1541 -63.5147 15.9994
O 12.1553 3.07128 6.95043 0 0 0 53.9946 11.6245 56.626 15.9994
O 11.3878 4.85115 8.69449 0 0 0 -25.413 -40.5142 59.2903 15.9994
O 9.76796 2.93616 12.7367 0 0 0 -34.0179 6.08395 -43.6459 15.9994
O 11.0715 4.72173 14.2055 0 0 0 -10.7992 -39.6027 49.725 15.9994
O 11.0441 7.06123 10.1422 0 0 0 2.23254 89.6989 4.9002 15.9994
O 9.85623 5.42042 11.9094 0 0 0 -72.5098 -26.805 -16.603 15.9994
O 5.33144 11.6298 1.01369 0 0 0 -32.995 21.3444 -20.3423 15.9994
O 7.9032 10.9942 5.43283 0 0 0 -17.198 77.8209 -0.699421 15.9994
O 6.73433 11.8684 7.62404 0 0 0 68.0178 38.605 25.6746 15.9994
O 4.85349 10.3969 12.5755 0 0 0 -17.7416 74.3928 -29.8396 15.9994
O 6.26258 10.7037 14.798 0 0 0 -57.004 13.1583 32.6841 15.9994
H 14.3283 3.31278 10.3437 0 0 0 8.41355 -2.14164 -5.68747 1.00794
H 3.08795 3.09062 4.47197 0 0 0 -2.26532 -2.1577 4.70481 1.00794
H 13.5377 3.16028 14.9822 0 0 0 7.21027 -1.2272 -3.80113 1.00794
H -0.98143 5.41158 1.28755 0 0 0 2.8387 -0.910962 -0.418103 1.00794
H -1.79506 6.07016 4.46756 0 0 0 2.22945 -0.340391 3.86818 1.00794
H 1.73659 5.65361 13.0257 0 0 0 -0.396767 0.379056 -3.44977 1.00794
H 10.5841 7.03683 15.1314 0 0 0 4.64551 -4.95495 0.165351 1.00794
H 7.56793 9.15232 3.7361 0 0 0 -2.13341 4.75038 2.8964 1.00794
H -4.18331 11.5437 5.36158 0 0 0 7.37103 -6.75618 -6.05255 1.00794
H -3.48118 8.82587 12.026 0 0 0 10.2563 -5.99497 -6.51838 1.00794
H 6.82573 0.72957 3.43923 0 0 0 11.1933 -21.9313 -26.845 1.00794
H 4.99343 2.0642 8.41611 0 0 0 -3.28193 7.61605 9.19036 1.00794
H 5.30267 2.22745 3.99139 0 0 0 4.42608 -0.530184 7.07477 1.00794
H 7.54883 2.66526 4.94066 0 0 0 -9.20815 4.48709 1.46498 1.00794
H -0.29456 11.8547 10.631 0 0 0 0.452066 0.874853 1.30594 1.00794
H 7.37412 3.90563 12.046 0 0 0 3.1648 -1.59763 0.914275 1.00794
H 3.7929 5.52881 14.6958 0 0 0 5.22081 4.10867 -0.500443 1.00794
H 4.77833 7.67058 13.9799 0 0 0 -1.95146 -9.88562 10.1799 1.00794
H 4.2041 8.35634 4.86657 0 0 0 -2.10313 -4.36994 -1.95066 1.00794
H 5.19123 6.3725 10.0804 0 0 0 -3.60345 -3.58645 3.07849 1.00794
H 4.35815 5.66575 12.28 0 0 0 1.99762 3.30629 -6.73939 1.00794
H 4.06438 8.33894 1.99517 0 0 0 -15.2673 1.71293 -2.59958 1.00794
H -2.1092 10.5892 10.4594 0 0 0 -10.0964 -6.06248 -8.22163 1.00794
H -4.2889 10.52 9.38168 0 0 0 9.53151 -3.95054 4.70477 1.00794
H 2.82067 9.11374 13.4568 0 0 0 4.11051 1.00098 -7.41779 1.00794
H 4.40877 11.3883 8.58817 0 0 0 7.09139 1.55605 -2.8578 1.00794
H 11.6424 1.79458 4.80682 0 0 0 5.63097 8.03228 5.13327 1.00794
H 6.87692 4.39472 3.50291 0 0 0 8.24581 19.576 -12.2632 1.00794
H 10.0571 7.93628 12.2922 0 0 0 -8.12567 -5.74993 -3.38695 1.00794
H 8.36192 11.9746 15.3613 0 0 0 -1.61075 -5.12659 4.83265 1.00794
H 7.30739 11.0317 12.464 0 0 0 -2.81018 -3.67916 4.45222 1.00794
H 6.76067 8.77328 13.1909 0 0 0 -0.78134 6.92884 -0.604026 1.00794
H 4.00991 1.25532 1.9227 0 0 0 -8.26773 1.58692 -5.76853 1.00794
H -4.1808 12.1036 2.7096 0 0 0 -0.953291 -2.35857 -0.496501 1.00794
H 3.32361 1.00587 3.53946 0 0 0 -2.38837 -6.93393 -0.654468 1.00794
H 2.12581 2.21055 13.7954 0 0 0 -0.892614 -6.82003 7.13171 1.00794
H 3.41499 1.46203 14.7425 0 0 0 -2.9367 -9.55997 1.16302 1.00794
H 3.41067 3.22145 14.4425 0 0 0 -2.53389 9.04459 1.00792 1.00794
H 3.29884 1.634 7.12155 0 0 0 -1.53679 2.34673 -4.02154 1.00794
H 2.66518 0.39306 6.02783 0 0 0 -5.54167 1.64319 -2.65604 1.00794
H 1.58603 1.14069 7.22682 0 0 0 -5.54094 1.60743 3.03923 1.00794
H 15.881 0.98174 13.1535 0 0 0 4.69026 1.37657 2.0469 1.00794
H 14.4107 1.60105 12.375 0 0 0 -0.0242502 3.23932 -2.8433 1.00794
H 14.2913 0.54207 13.7993 0 0 0 -3.93478 5.59859 3.84903 1.00794
H 3.77893 1.06504 12.0044 0 0 0 5.43942 6.60756 2.62351 1.00794
H -5.26412 12.5084 10.6647 0 0 0 1.73122 -2.10563 -4.76146 1.00794
H -6.18115 12.6639 12.1697 0 0 0 -7.1503 2.72971 0.387927 1.00794
H -1.84593 5.37455 15.9042 0 0 0 4.73407 -0.317125 -4.3183 1.00794
H 11.1404 4.49617 0.76842 0 0 0 -4.37089 -3.86541 2.61074 1.00794
H -3.86469 6.1628 0.8253 0 0 0 0.677844 -0.821418 3.10163 1.00794
H -4.28161 8.14647 0.30746 0 0 0 0.954781 8.35337 -5.98316 1.00794
H 9.66629 8.21545 0.87155 0 0 0 -5.0498 2.14603 -5.42716 1.00794
H -4.68777 9.11704 1.73978 0 0 0 0.896797 5.42824 3.04408 1.00794
H -4.60406 9.75949 13.4295 0 0 0 -5.67308 9.19827 12.851 1.00794
H -5.43913 11.2897 13.7243 0 0 0 0.810029 3.87505 2.22259 1.00794
H 9.57883 9.78305 14.4485 0 0 0 -1.1965 -2.51486 2.70679 1.00794
H 9.12566 0.26919 0.61005 0 0 0 -1.06654 -5.37328 -2.34566 1.00794
H 1.1634 12.3527 2.30861 0 0 0 -2.62759 -6.38652 -2.99483 1.00794
H 9.21494 1.60291 1.7709 0 0 0 -4.93657 7.56129 1.98898 1.00794
H 5.90271 1.21082 14.4032 0 0 0 5.04623 -4.67608 -1.76665 1.00794
H 5.98269 2.91438 13.857 0 0 0 3.41079 5.10106 -3.45149 1.00794
H 5.21153 2.49446 15.3955 0 0 0 9.52422 1.59054 8.56796 1.00794
H 4.68904 3.35609 2.26206 0 0 0 5.24002 3.22128 -1.65137 1.00794
H 3.51096 3.59882 0.95114 0 0 0 -0.219723 -1.73816 -7.14534 1.00794
H 3.78375 4.87224 2.13511 0 0 0 1.43411 5.49676 -0.687011 1.00794
H 7.13839 6.52592 7.95857 0 0 0 -6.33424 4.63836 -3.56734 1.00794
H 7.71353 5.82367 6.43243 0 0 0 -1.26116 0.735892 -5.72919 1.00794
H 7.72866 4.84468 7.91132 0 0 0 -4.54866 -3.83474 3.31402 1.00794
H 2.45778 7.82284 7.16812 0 0 0 0.535676 -13.2349 -2.7286 1.00794
H 3.80433 7.57881 8.27934 0 0 0 5.78047 -0.643897 1.92338 1.00794
H 2.58173 8.82708 8.62853 0 0 0 -1.24991 3.66516 4.58673 1.00794
H 1.82368 10.4935 1.23569 0 0 0 0.220076 -1.30672 5.25805 1.00794
H 2.50351 9.93591 15.9281 0 0 0 3.53328 -5.45612 0.0700333 1.00794
H 4.15557 10.5925 15.9769 0 0 0 0.958172 0.206967 -0.251056 1.00794
H -0.47247 8.25174 1.61341 0 0 0 1.85923 4.97994 -4.99189 1.00794
H -2.22183 8.30174 1.25522 0 0 0 -1.38332 0.440638 -3.65875 1.00794
H -1.63997 7.52584 2.7339 0 0 0 -1.33305 -0.028355 3.08544 1.00794
H 1.92562 10.4563 6.93395 0 0 0 1.45016 5.67349 4.12704 1.00794
H 2.11543 9.48982 5.45374 0 0 0 1.88156 0.365409 -8.73671 1.00794
H 0.83027 9.08813 6.62336 0 0 0 -11.7545 -0.228166 0.760554 1.00794
H 8.82377 1.00768 4.47158 0 0 0 -2.80277 -4.47843 -1.58899 1.00794
H 1.94788 12.4856 4.28682 0 0 0 -1.3275 -4.63293 0.617796 1.00794
H 9.82035 0.62958 5.88291 0 0 0 1.32513 2.31301 4.31344 1.00794
H 1.57016 9.76077 10.7654 0 0 0 -3.57587 -5.41718 0.280828 1.00794
H 2.98698 10.6351 10.1117 0 0 0 3.31154 -1.24602 -0.702759 1.00794
H 2.08434 11.3007 11.4927 0 0 0 5.17167 -1.28492 3.91638 1.00794
H 0.95578 10.3706 14.1833 0 0 0 1.50489 -0.566719 -5.97944 1.00794
H 0.2631 9.96837 15.7742 0 0 0 -1.50118 -2.32103 0.197274 1.00794
H 0.51388 11.6664 15.3324 0 0 0 -3.55081 6.4577 0.892255 1.00794
H 11.4105 1.76524 2.57845 0 0 0 0.178402 0.219528 5.58982 1.00794
H 11.3827 1.05825 0.94471 0 0 0 3.81152 -6.67317 -7.30186 1.00794
H 12.6684 2.19851 1.4016 0 0 0 -0.192848 5.81035 -1.36739 1.00794
H 4.82575 10.3064 3.55419 0 0 0 4.88015 -3.03436 0.248781 1.00794
H 3.14668 10.6987 3.14995 0 0 0 -4.79757 2.87717 -4.81916 1.00794
H 3.95773 11.519 4.51117 0 0 0 1.95853 3.81905 3.76037 1.00794
H 11.2793 1.76214 9.47688 0 0 0 1.90946 6.07344 -1.0498 1.00794
H 10.5151 0.24412 8.96575 0 0 0 -1.23369 -4.12811 -5.97188 1.00794
H 10.1316 0.94373 10.5479 0 0 0 -1.8957 5.27615 0.0219043 1.00794
H 12.0174 0.65662 13.1894 0 0 0 -1.45894 0.314056 -8.40435 1.00794
H 2.98377 12.4434 14.7079 0 0 0 -3.21182 -4.2841 2.06579 1.00794
H 12.0253 1.68438 14.6481 0 0 0 -6.42378 2.04424 1.71577 1.00794
H 8.69146 7.45629 2.65468 0 0 0 -4.01693 2.11509 -1.42576 1.00794
H 9.34467 5.82544 2.90405 0 0 0 3.13496 -4.05341 -2.54667 1.00794
H 8.81743 6.7985 4.29674 0 0 0 -6.59142 0.711041 7.66803 1.00794
H 9.99958 6.07138 6.15177 0 0 0 -2.30178 4.01873 8.44362 1.00794
H 9.99097 4.61062 5.12741 0 0 0 -2.84018 -3.97739 -3.86953 1.00794
H 11.5023 5.51663 5.38967 0 0 0 7.92088 0.266705 -0.46215 1.00794
H 12.0603 3.62875 10.7035 0 0 0 -5.80888 -1.96498 -2.05183 1.00794
H 12.6283 2.83988 12.1844 0 0 0 -3.14861 -1.32754 1.78879 1.00794
H 13.0544 4.52906 11.8727 0 0 0 -3.41336 7.60035 7.22908 1.00794
H 7.83834 6.27409 9.92453 0 0 0 4.74841 -7.94228 6.76326 1.00794
H 8.1239 8.03542 9.81631 0 0 0 3.83062 4.11015 -2.62618 1.00794
H 7.41495 7.33203 11.2893 0 0 0 -3.28484 -0.091809 4.41674 1.00794
H 8.21408 8.82051 16.0134 0 0 0 0.763245 -1.6681 -6.75596 1.00794
H 6.00684 8.70179 1.35185 0 0 0 3.6258 2.29621 0.173798 1.00794
H 7.65774 9.34546 1.30222 0 0 0 3.24037 3.56594 -0.301469 1.00794
H 6.09189 8.79063 7.98058 0 0 0 1.16987 1.94279 7.32333 1.00794
H 6.74597 8.27376 6.41078 0 0 0 7.58873 -0.12274 -4.96623 1.00794
H 5.37708 9.39871 6.47347 0 0 0 -2.36571 8.14503 -1.00037 1.00794
H 9.55182 9.34413 7.69291 0 0 0 -1.96095 -7.0779 -5.43718 1.00794
H 8.74496 10.1609 9.05723 0 0 0 -3.90603 0.207989 4.58693 1.00794
H -5.91126 11.1004 7.90933 0 0 0 0.252748 7.04048 -4.68541 1.00794
274
Timestep=85 Time=85.000000 pbc="T T T" Lattice="15.6239 0 0 -8.37975 12.4108 0 1.195 0.431155 16.0755" Potential_energy=-80.26080613487872 Temperature=0 Stress="7082.233615334656 -4232.241543093756 -4823.605809431897 -4232.241543093756 4079.597771368299 4386.371748493771 -4823.605809431897 4386.371748493771 13072.145315290776" Properties=species:S:1:pos:R:3:vel:R:3:forces:R:3:mass:R:1
Si -6.34218 12.2721 1.73895 0 0 0 0.384035 1.18856 0.432881 28.0855
Si -0.775745 2.08791 4.07945 0 0 0 -0.643713 -0.507641 0.129971 28.0855
Si 0.648163 2.21476 0.323319 0 0 0 -1.12519 -0.43818 -0.428578 28.0855
Si -0.572224 2.44005 9.36696 0 0 0 0.523451 0.397831 0.286654 28.0855
Si 1.98394 2.63437 5.33507 0 0 0 -0.059547 0.307027 -0.674155 28.0855
Si -0.661578 3.08442 14.6923 0 0 0 0.291266 -0.158455 -0.356486 28.0855
Si 1.9936 2.31031 11.0518 0 0 0 -0.033269 0.201796 0.215768 28.0855
Si -0.0684697 4.3621 2.17785 0 0 0 -0.609713 -0.0384633 0.0020305 28.0855
Si 0.65933 4.44056 7.37958 0 0 0 0.154247 -0.365745 0.79716 28.0855
Si 11.9337 6.24189 9.16927 0 0 0 -0.924117 -0.948567 2.33542 28.0855
Si -0.6173 6.40097 5.55812 0 0 0 -0.959194 0.114551 0.322333 28.0855
Si 0.898269 4.6366 12.6812 0 0 0 -0.551657 -0.622965 0.767528 28.0855
Si 11.4214 6.1073 14.6314 0 0 0 -0.539539 -0.750187 0.930175 28.0855
Si -0.912076 6.33008 10.7718 0 0 0 0.678789 0.227538 0.408718 28.0855
Si 8.63877 10.2671 3.99442 0 0 0 -0.904394 -0.814406 0.144654 28.0855
Si -3.90807 10.9305 15.6785 0 0 0 -0.625696 0.218863 0.458817 28.0855
Si -2.56137 8.1764 6.97648 0 0 0 -0.0236128 -0.871231 1.35711 28.0855
Si -4.05819 9.82827 4.91983 0 0 0 -0.164533 0.542849 0.961493 28.0855
Si -2.38751 7.70655 12.9206 0 0 0 0.44112 -0.143205 1.05685 28.0855
Si 6.95719 0.384202 1.72722 0 0 0 0.0293489 -0.162571 0.891799 28.0855
Si 7.90478 2.95781 15.7384 0 0 0 0.0667544 -0.142214 -0.502251 28.0855
Si 6.8048 0.136175 7.37837 0 0 0 -0.0872703 0.0524364 -0.438535 28.0855
Si 4.31616 3.32175 9.43117 0 0 0 0.954277 0.102534 0.664374 28.0855
Si 6.15131 2.50876 5.70021 0 0 0 -0.0172654 -0.0637354 -0.479883 28.0855
Si -0.912761 12.4572 12.0845 0 0 0 -0.168075 -0.15392 0.5793 28.0855
Si 6.84181 2.7016 10.7566 0 0 0 -0.584017 0.555299 -0.118737 28.0855
Si 5.57005 4.94489 0.877155 0 0 0 -0.594823 -0.488604 0.0610208 28.0855
Si 1.7104 6.30093 3.68188 0 0 0 -0.575131 0.337275 0.155635 28.0855
Si 4.70794 6.37095 14.9716 0 0 0 0.462404 0.397587 -0.435436 28.0855
Si 5.18981 5.04462 6.95596 0 0 0 0.31935 -0.331498 -1.17648 28.0855
Si 1.58062 6.69356 9.21011 0 0 0 0.29656 0.168866 0.265044 28.0855
Si 4.33924 7.09192 4.90512 0 0 0 -0.0174924 -0.43522 -0.196951 28.0855
Si 4.13335 6.94359 10.8186 0 0 0 -0.247267 -0.483762 0.140313 28.0855
Si 2.5356 7.54141 1.15587 0 0 0 0.245256 0.180167 0.48724 28.0855
Si -1.6702 10.0276 2.9366 0 0 0 0.593283 -0.307051 0.750774 28.0855
Si -2.11081 10.1758 9.15903 0 0 0 0.0357502 -0.362144 0.372017 28.0855
Si -0.0166198 11.3407 5.13987 0 0 0 0.722384 0.201686 0.0623184 28.0855
Si 3.76649 9.60801 12.0444 0 0 0 0.194132 0.0773469 -0.425289 28.0855
Si -1.5374 10.3392 14.0398 0 0 0 -0.137936 -0.00541961 0.473074 28.0855
Si 4.97949 12.3262 2.45818 0 0 0 -0.842688 -0.145867 0.00165746 28.0855
Si 5.48516 12.5273 7.96961 0 0 0 0.0834325 -0.776709 0.69154 28.0855
Si 8.92932 1.88934 8.61365 0 0 0 -0.0201895 0.272693 -0.0815764 28.0855
Si 12.745 2.1429 6.11149 0 0 0 -0.897661 0.105808 0.258884 28.0855
Si 9.52943 1.66846 13.6702 0 0 0 0.151125 0.0999681 0.0305536 28.0855
Si 6.67706 6.10163 3.36676 0 0 0 0.0758042 -0.26811 -0.308496 28.0855
Si 10.8641 3.96049 7.44594 0 0 0 -0.0649147 0.129089 0.462795 28.0855
Si 10.4747 4.24391 12.4756 0 0 0 -0.388008 -0.396945 0.129577 28.0855
Si 9.8461 6.94993 11.127 0 0 0 -0.342964 0.00526531 0.540307 28.0855
Si 7.28579 11.2489 16.088 0 0 0 0.647464 -0.03881 -0.610161 28.0855
Si 7.73849 10.9395 6.76839 0 0 0 -0.370026 -0.314614 -0.137069 28.0855
Si 6.1591 10.6149 13.4731 0 0 0 -0.487192 0.314754 -0.316657 28.0855
C 3.48762 0.303243 2.76533 0 0 0 0.131362 0.0337256 -0.441289 12.0107
C 3.02888 2.37347 14.9911 0 0 0 0.0525383 0.541221 0.292064 12.0107
C 2.64276 1.46969 6.61627 0 0 0 0.0589972 -0.135005 0.678562 12.0107
C 14.806 1.78907 13.3657 0 0 0 -0.0210443 -0.173207 -0.526281 12.0107
C 3.0974 0.863507 11.4565 0 0 0 0.15337 0.401646 0.219245 12.0107
C 10.816 5.19532 0.261764 0 0 0 0.0336754 -0.105364 -0.159185 12.0107
C -5.03685 9.14618 0.879999 0 0 0 0.224271 -0.444754 0.481671 12.0107
C -4.97907 10.3488 14.2502 0 0 0 -0.198925 0.100195 0.0111509 12.0107
C 0.350413 12.4899 1.23221 0 0 0 0.303264 -0.187328 0.330036 12.0107
C 6.68185 3.32183 14.3642 0 0 0 -0.161062 -0.0555806 0.0183955 12.0107
C 4.21887 3.93426 1.69219 0 0 0 0.163283 0.132781 0.102568 12.0107
C 6.9528 5.55659 7.3171 0 0 0 -0.880617 -0.00453495 -0.232098 12.0107
C 2.28936 8.00018 8.09959 0 0 0 -0.30228 -0.140176 0.00632367 12.0107
C 2.16202 9.01708 0.0948603 0 0 0 0.150171 0.0507131 0.242103 12.0107
C -1.25447 8.76278 1.65404 0 0 0 0.0833041 -0.151159 0.396275 12.0107
C 1.07469 10.3538 6.25484 0 0 0 -0.580484 0.0596216 0.146671 12.0107
C 9.32069 0.483684 4.74962 0 0 0 -0.424683 -0.835877 0.0525662 12.0107
C 2.35423 10.2991 11.0674 0 0 0 -0.248053 0.523503 -0.513659 12.0107
C 0.264578 10.1477 14.3974 0 0 0 -0.354343 -0.0233391 -0.23409 12.0107
C 12.0853 1.10686 1.79184 0 0 0 0.386384 -0.0231715 -0.00434752 12.0107
C 4.1516 10.7528 3.01566 0 0 0 0.228634 0.134014 0.266023 12.0107
C 10.3377 1.48707 9.75523 0 0 0 0.142389 0.218513 -0.189165 12.0107
C 11.0794 0.636237 13.7041 0 0 0 -0.737218 -0.362883 0.215765 12.0107
C 8.50559 6.42003 3.29414 0 0 0 0.179129 -0.204196 0.240863 12.0107
C 10.7623 5.05455 5.93248 0 0 0 -0.0185689 -0.282827 -0.0939709 12.0107
C 12.2043 3.67543 12.0553 0 0 0 0.410086 0.246307 -0.0535839 12.0107
C 8.14889 7.56289 10.6538 0 0 0 0.608507 0.217142 0.0889607 12.0107
C 6.29075 9.07601 0.653775 0 0 0 0.0549029 0.387758 0.195398 12.0107
C 6.46797 9.56769 6.68211 0 0 0 0.214294 0.602512 -0.31766 12.0107
C 9.13185 10.33 7.85144 0 0 0 -0.166816 -0.00401231 -0.27958 12.0107
O 1.01638 1.22529 1.67485 0 0 0 0.199163 0.678238 0.137572 15.9994
O 0.896021 1.86073 4.27165 0 0 0 0.0909704 0.743862 0.507451 15.9994
O 0.223723 2.36581 15.9592 0 0 0 0.336632 0.243688 -0.120651 15.9994
O 0.612185 1.64694 10.3043 0 0 0 -0.79364 -0.0432548 -0.141563 15.9994
O -1.11578 3.14343 2.77581 0 0 0 -0.111233 0.177351 0.0325374 15.9994
O 0.748816 3.82828 0.797942 0 0 0 0.227877 0.620311 -0.675752 15.9994
O 0.0433809 2.92157 7.86057 0 0 0 -0.520987 0.258546 -0.273774 15.9994
O 1.52509 4.15551 5.94867 0 0 0 -0.170832 0.566656 0.304888 15.9994
O -0.588948 5.5427 7.03219 0 0 0 0.241149 -0.0651363 -0.398356 15.9994
O -0.0115853 4.55809 14.1165 0 0 0 -0.114259 -0.273963 -0.186368 15.9994
O 1.61851 3.10328 12.5012 0 0 0 0.734667 0.138826 -0.223541 15.9994
O -2.45414 5.73631 10.2599 0 0 0 -1.451 0.280594 -1.25573 15.9994
O -0.0758881 4.93783 11.3166 0 0 0 0.290858 0.0467652 0.0135036 15.9994
O 8.48001 10.9288 2.42034 0 0 0 -0.450341 -0.556651 0.476917 15.9994
O -5.84906 11.9075 0.163535 0 0 0 -0.013431 0.295635 -0.584771 15.9994
O -3.05042 6.69389 7.65898 0 0 0 1.12277 1.31788 -1.5673 15.9994
O -1.60298 7.77887 5.63738 0 0 0 -0.0732389 0.0297473 0.0393531 15.9994
O -5.55149 9.35776 4.22857 0 0 0 -0.272405 -0.0765272 -0.429146 15.9994
O -3.91324 9.0878 6.45939 0 0 0 -0.548781 0.398005 -0.805257 15.9994
O -2.86074 6.24497 13.612 0 0 0 0.00242332 0.318712 -0.759668 15.9994
O -0.983069 7.47767 12.0219 0 0 0 0.340829 -0.445861 0.152236 15.9994
O 6.08977 1.21019 0.527808 0 0 0 -0.778783 -0.629599 -0.0767017 15.9994
O 2.7552 3.41415 10.0529 0 0 0 -0.384508 -0.635968 -0.350533 15.9994
O 6.04595 1.6283 7.13224 0 0 0 -0.487699 -0.527318 -0.0760309 15.9994
O 5.42689 3.61543 10.6604 0 0 0 0.208378 -0.888399 -0.0251561 15.9994
O 6.42918 1.13125 11.2814 0 0 0 0.531027 0.181359 -0.557747 15.9994
O 6.88887 3.9064 0.637002 0 0 0 -0.327717 0.189946 1.15178 15.9994
O 1.09964 4.75694 3.32979 0 0 0 -0.224531 -0.190325 -0.542216 15.9994
O 0.961402 6.85755 5.10284 0 0 0 0.0703103 -0.170316 -0.272944 15.9994
O 6.29888 6.02172 15.4505 0 0 0 0.171516 -0.361982 0.655648 15.9994
O 4.31735 4.60141 8.33031 0 0 0 0.310639 0.0816513 -0.450765 15.9994
O 5.1033 3.84193 5.76407 0 0 0 0.273751 0.485103 0.394205 15.9994
O 1.70756 5.12545 8.54318 0 0 0 -1.01309 0.102702 -0.654539 15.9994
O -0.0647376 7.02102 9.47592 0 0 0 -0.282287 0.0233315 -0.700636 15.9994
O 3.39403 6.11182 3.89865 0 0 0 -0.0935387 0.127228 0.143313 15.9994
O 4.35317 6.43306 6.45539 0 0 0 -0.0448488 -0.00426721 0.432259 15.9994
O 2.43564 6.80131 10.6819 0 0 0 -0.370511 0.195543 -0.0761391 15.9994
O 1.4318 7.40573 2.42894 0 0 0 -0.461904 0.649779 -0.247696 15.9994
O 2.46808 6.149 0.206058 0 0 0 0.160321 0.186853 0.18989 15.9994
O -2.25902 11.3595 2.07396 0 0 0 -0.3528 0.237254 -0.154635 15.9994
O -2.84186 9.22611 3.89079 0 0 0 1.10937 -0.452008 -0.274874 15.9994
O -1.56739 9.06001 8.01749 0 0 0 0.340225 0.104172 -0.163996 15.9994
O -2.54848 11.6623 8.45762 0 0 0 -0.425925 0.238194 0.261177 15.9994
O -0.22641 10.3659 3.76691 0 0 0 0.038928 -0.425514 -0.0465964 15.9994
O -1.48577 11.6907 5.91053 0 0 0 0.50803 -0.0400864 0.256307 15.9994
O 4.6275 8.54415 11.0571 0 0 0 -0.160514 0.461486 0.250325 15.9994
O -2.16101 8.78099 14.1872 0 0 0 0.332296 0.418629 -0.852293 15.9994
O -1.77467 11.0474 12.51 0 0 0 -0.282436 -0.945517 -0.415759 15.9994
O -2.3185 11.3006 15.1959 0 0 0 0.409084 -0.0650459 -0.855554 15.9994
O 14.1442 0.544277 3.83808 0 0 0 0.544205 0.130347 0.201004 15.9994
O 13.7792 1.34405 9.13145 0 0 0 0.321615 -0.317935 -0.186836 15.9994
O 8.3554 0.391127 8.03589 0 0 0 -0.284988 0.401617 0.192887 15.9994
O 7.63171 2.78169 9.25531 0 0 0 -0.218254 0.168271 1.45697 15.9994
O 14.2085 2.72166 5.50207 0 0 0 0.730492 0.156881 -0.694333 15.9994
O 12.9086 0.531256 6.62871 0 0 0 -0.429517 0.392969 -0.999992 15.9994
O 8.14036 0.695897 13.5114 0 0 0 0.659357 0.0431389 0.0695618 15.9994
O 9.41527 2.52102 15.1218 0 0 0 -0.00799383 -0.297068 -1.00224 15.9994
O 6.02155 6.25814 1.82849 0 0 0 -0.22927 0.157948 -0.23282 15.9994
O 5.93464 7.25357 4.35219 0 0 0 -0.596494 -0.012833 0.841855 15.9994
O 9.55984 2.8418 7.34371 0 0 0 -0.0943675 0.589716 0.138093 15.9994
O 12.3166 3.10905 7.42467 0 0 0 -0.397529 0.0317146 0.091224 15.9994
O 10.8577 4.92465 8.86035 0 0 0 0.55727 0.247325 -0.731316 15.9994
O 9.58791 2.80409 12.4278 0 0 0 0.411415 -0.0975296 0.282445 15.9994
O 10.3668 4.91566 14.0382 0 0 0 0.361364 0.187927 -0.230745 15.9994
O 10.9686 7.41836 9.91758 0 0 0 0.114158 0.267628 0.290288 15.9994
O 9.75777 5.25153 11.2923 0 0 0 -0.231426 0.41174 0.0171944 15.9994
O 6.11927 11.9957 1.24611 0 0 0 0.145609 0.136044 -0.0313036 15.9994
O 8.31593 11.3877 5.22646 0 0 0 0.43023 -0.0142542 -0.105849 15.9994
O 7.10497 12.322 7.51488 0 0 0 0.270753 -0.275889 -0.605028 15.9994
O 4.77327 10.8811 12.5334 0 0 0 0.56016 -0.166777 -0.0176664 15.9994
O 5.99264 11.361 14.9993 0 0 0 0.0907263 0.640504 -0.0862923 15.9994
H -1.257 3.51781 10.0028 0 0 0 0.116799 -0.252055 0.166211 1.00794
H 3.12545 2.92411 4.4671 0 0 0 0.100416 -0.285851 0.251296 1.00794
H 13.5972 3.35178 15.1611 0 0 0 0.0494605 -0.172018 0.745434 1.00794
H -0.874372 5.53273 1.82793 0 0 0 -0.339966 0.0502522 -0.299146 1.00794
H -1.23514 5.5083 4.57859 0 0 0 0.153903 0.59718 -0.127646 1.00794
H 1.92981 5.66282 12.8433 0 0 0 0.0427003 0.179785 -0.186173 1.00794
H 10.7105 7.387 14.7299 0 0 0 -0.517503 -0.0480269 0.0781819 1.00794
H 7.54888 9.28793 4.02517 0 0 0 0.769894 0.362195 0.0435039 1.00794
H -3.94644 11.28 5.0823 0 0 0 -0.42242 0.255671 -0.104346 1.00794
H -3.37176 8.28636 12.0242 0 0 0 -0.211217 -0.110015 -0.439721 1.00794