366
Timestep=0 Time=0.000000 pbc="T T T" Lattice="15.0372 0 0 -7.49312 13.4543 0 -0.158529 0.080717 17.6074" Potential_energy=2139.4421350727207 Temperature=0 Stress="149855.91524494727 -7028.367680815528 4400.198063739297 -7028.367680815528 159685.88246532402 -1187.495041100642 4400.198063739297 -1187.495041100642 152893.61210904148" Properties=species:S:1:pos:R:3:vel:R:3:forces:R:3:mass:R:1
Si 2.28811 0.03533 2.39568 0 0 0 -11.0229 -4.19648 -2.61623 28.0855
Si 13.6223 2.03535 3.60969 0 0 0 22.9502 -20.0271 48.0128 28.0855
Si 1.05972 2.18608 0.58478 0 0 0 49.3715 12.0116 -28.8729 28.0855
Si -5.35856 13.119 7.60588 0 0 0 29.0624 -33.0343 -9.90484 28.0855
Si 0.85119 1.65933 5.63169 0 0 0 33.0809 30.237 -15.7062 28.0855
Si -1.33488 2.35809 16.0121 0 0 0 51.0366 -43.3289 -33.1456 28.0855
Si 0.24425 4.40875 2.42413 0 0 0 11.2757 -32.5716 -22.5059 28.0855
Si -3.77844 6.94262 3.90117 0 0 0 -10.195 19.0622 -2.60636 28.0855
Si -1.04878 6.60669 0.47337 0 0 0 -42.1914 -77.077 -17.8822 28.0855
Si -0.12688 4.28397 7.1675 0 0 0 35.7854 44.1156 14.3112 28.0855
Si 11.1008 6.60899 9.65068 0 0 0 1.42647 10.9765 -12.0555 28.0855
Si -1.06349 6.78258 5.5042 0 0 0 -17.081 3.77727 31.8599 28.0855
Si -0.4497 4.61288 14.0327 0 0 0 44.8693 -8.23091 -13.3224 28.0855
Si -1.39477 6.28006 11.6184 0 0 0 60.3119 35.6743 -22.9906 28.0855
Si -2.58263 8.99834 2.03186 0 0 0 -33.5021 -2.25874 41.3717 28.0855
Si 8.71528 11.2516 4.13899 0 0 0 12.1635 -14.4811 -36.8371 28.0855
Si -4.07597 11.2949 0.3415 0 0 0 -17.8526 -7.50824 -24.9399 28.0855
Si -2.48742 8.68041 7.68644 0 0 0 25.1841 11.0522 -1.6865 28.0855
Si 8.87213 10.7491 9.51122 0 0 0 -9.90712 9.72147 -35.3644 28.0855
Si -3.81878 11.0064 5.93005 0 0 0 -7.36926 5.12153 -10.8391 28.0855
Si 8.55639 10.9357 15.8839 0 0 0 31.9285 20.8655 2.92767 28.0855
Si -3.76314 11.263 10.9535 0 0 0 -4.17873 -27.2197 -8.45978 28.0855
Si -0.10599 13.3683 2.15506 0 0 0 -6.31451 -2.58383 -9.06735 28.0855
Si 3.6709 2.03061 4.25617 0 0 0 -6.11163 -0.996982 2.47372 28.0855
Si 6.82462 2.01119 0.15461 0 0 0 14.9461 -3.902 3.88031 28.0855
Si 0.2754 12.9374 7.49218 0 0 0 33.0816 0.873862 43.3984 28.0855
Si 3.68054 2.00179 9.29065 0 0 0 52.4604 3.26197 21.5612 28.0855
Si 6.23847 1.82415 5.89219 0 0 0 18.3642 25.9172 -10.2146 28.0855
Si -1.28007 13.4703 13.4926 0 0 0 44.9406 -12.934 -22.0534 28.0855
Si 1.63491 6.37743 4.21229 0 0 0 -12.8965 41.937 -8.25068 28.0855
Si 3.46363 7.16291 17.2382 0 0 0 -30.4347 -82.6553 25.4564 28.0855
Si 5.28986 4.15776 7.76252 0 0 0 -17.4571 -1.88721 15.3212 28.0855
Si 4.09189 6.63843 6.10117 0 0 0 -42.4277 4.20594 -31.4233 28.0855
Si 4.96715 5.17984 13.9389 0 0 0 -5.33105 19.2667 0.620639 28.0855
Si 0.81228 7.05891 15.5929 0 0 0 -14.9849 -33.0244 2.89045 28.0855
Si 2.70908 8.54106 2.28106 0 0 0 -53.8435 -5.12647 56.1505 28.0855
Si -1.34392 11.1441 4.02163 0 0 0 2.7813 -5.644 -18.7389 28.0855
Si 0.63739 11.712 17.3026 0 0 0 -49.108 -60.9232 -23.6163 28.0855
Si 2.4251 8.8396 7.54315 0 0 0 -19.8355 25.3577 9.58735 28.0855
Si -1.17422 10.9158 9.35923 0 0 0 -5.21379 17.037 22.8872 28.0855
Si 1.46716 11.0018 5.49581 0 0 0 -0.190448 45.0279 37.9218 28.0855
Si 1.47311 9.45694 13.8273 0 0 0 23.72 16.7556 -47.834 28.0855
Si -2.06152 11.6503 15.8356 0 0 0 19.7286 -58.9521 26.3148 28.0855
Si 0.37048 11.5244 11.9217 0 0 0 17.1248 26.1969 11.448 28.0855
Si 5.09561 13.0021 1.93963 0 0 0 -65.6723 -51.6733 8.08477 28.0855
Si 8.63101 2.15358 3.97584 0 0 0 11.5437 -3.3872 3.58455 28.0855
Si 12.6732 0.26105 7.69125 0 0 0 10.8364 -21.4526 24.4657 28.0855
Si 11.2526 2.40701 5.72048 0 0 0 -5.2072 -10.4537 -24.4169 28.0855
Si 10.68 2.89912 12.1308 0 0 0 -25.841 -16.0331 -2.75625 28.0855
Si 9.86977 4.55354 2.31298 0 0 0 57.3121 11.7846 -17.7885 28.0855
Si 6.3572 7.23671 3.99389 0 0 0 3.92326 -20.3565 -10.6538 28.0855
Si 8.7403 6.90595 0.50938 0 0 0 18.964 53.0352 -22.4133 28.0855
Si 9.95785 4.58262 7.46478 0 0 0 -4.38574 4.66472 -11.3917 28.0855
Si 6.13101 6.46869 9.45741 0 0 0 9.88272 -0.394243 -1.35209 28.0855
Si 8.84123 6.97566 5.72052 0 0 0 0.989766 -4.06684 3.78425 28.0855
Si 9.98622 5.42129 13.647 0 0 0 -29.9984 22.1594 1.2504 28.0855
Si 6.22994 7.02162 15.887 0 0 0 4.30491 9.00186 5.6118 28.0855
Si 8.57283 7.01486 11.525 0 0 0 8.11075 -37.2691 15.4005 28.0855
Si 7.48676 9.26033 2.21031 0 0 0 0.192524 19.4777 1.94628 28.0855
Si 4.03145 10.797 3.91301 0 0 0 -50.9393 17.2092 3.72557 28.0855
Si 5.87696 11 17.5756 0 0 0 44.5394 38.5809 23.3847 28.0855
Si 7.3173 8.80368 7.71331 0 0 0 31.0597 1.90735 1.5369 28.0855
Si 6.10481 11.1238 6.03039 0 0 0 -2.97793 -53.8532 -5.65277 28.0855
Si 7.66792 9.02054 13.8275 0 0 0 13.7099 -7.51363 11.9499 28.0855
Si 3.29055 11.2016 15.8405 0 0 0 -1.51474 43.5122 -33.2661 28.0855
Si 6.73456 11.0912 11.7779 0 0 0 -29.1548 -17.8535 -39.4461 28.0855
O 1.15202 0.86574 1.56114 0 0 0 -83.5915 -28.4421 4.4348 15.9994
O -0.20973 1.34213 4.44419 0 0 0 22.1472 -79.8174 -20.972 15.9994
O 1.11343 0.30741 6.5113 0 0 0 -61.8465 -59.0924 -25.3179 15.9994
O -0.55856 2.43713 17.4749 0 0 0 -65.4103 11.1575 40.0479 15.9994
O -0.9655 3.43728 2.89992 0 0 0 -65.9634 37.2072 -15.8563 15.9994
O 1.26269 3.53926 1.49959 0 0 0 67.7719 11.6502 -6.80862 15.9994
O -0.30248 5.72583 1.6355 0 0 0 9.54902 52.5044 37.9393 15.9994
O 0.13041 2.80822 6.50167 0 0 0 -52.571 -10.8192 32.2462 15.9994
O -2.24234 6.73637 4.3876 0 0 0 44.2362 -32.1798 -68.5181 15.9994
O -0.83104 5.28896 6.06573 0 0 0 -37.9255 -72.7096 -38.4831 15.9994
O -1.26038 3.80145 15.1996 0 0 0 -69.0241 34.9461 23.1196 15.9994
O -2.78657 6.14429 10.7137 0 0 0 -1.61981 -71.1365 36.851 15.9994
O -1.46928 5.45734 13.0619 0 0 0 -85.1887 0.915501 13.4718 15.9994
O -3.73711 8.10237 2.74973 0 0 0 -86.7573 16.1274 -22.7507 15.9994
O -1.61393 7.99431 1.16911 0 0 0 26.8056 24.2184 -26.7045 15.9994
O -5.90412 12.7486 3.66232 0 0 0 -26.2661 53.8612 65.801 15.9994
O -3.27486 10.0573 1.02192 0 0 0 29.4578 -10.8449 -45.3322 15.9994
O -4.48197 12.4052 1.43419 0 0 0 42.7547 8.60312 23.8779 15.9994
O -3.43994 7.71334 8.56941 0 0 0 -61.3286 27.4046 -17.969 15.9994
O -1.5191 7.82176 6.68303 0 0 0 62.3176 25.9594 17.5344 15.9994
O -6.2326 12.0591 8.51696 0 0 0 -73.8851 12.5863 -12.5096 15.9994
O -5.10566 10.6016 5.01358 0 0 0 -7.01961 -90.3163 -8.76021 15.9994
O -3.38229 9.71893 6.82065 0 0 0 -63.8286 -30.0016 3.97433 15.9994
O -4.17146 12.2698 6.89118 0 0 0 76.8482 45.5981 16.5799 15.9994
O -5.56905 10.7565 17.2341 0 0 0 -32.7486 -49.696 45.1066 15.9994
O -4.63053 10.3929 9.84967 0 0 0 25.2242 -19.6035 1.13295 15.9994
O 3.43856 1.0211 2.98532 0 0 0 75.0291 8.94083 -47.7423 15.9994
O 2.26681 2.2003 5.06875 0 0 0 4.70345 98.3651 10.9855 15.9994
O 6.4054 0.8746 1.30701 0 0 0 -56.7863 19.2293 -22.1274 15.9994
O 2.78457 0.88824 8.45671 0 0 0 -22.7964 32.5847 16.4216 15.9994
O 4.78375 1.41086 5.30395 0 0 0 -39.8437 -68.4631 14.0274 15.9994
O 6.89066 0.51035 6.58075 0 0 0 -37.0722 -41.6643 -12.0048 15.9994
O 1.08298 4.93005 3.71317 0 0 0 17.2129 -63.0221 53.3224 15.9994
O 0.36137 7.24133 4.80737 0 0 0 8.49704 80.9517 -3.41099 15.9994
O 4.02887 3.36511 8.41155 0 0 0 -82.7367 21.3869 -4.31226 15.9994
O 6.16283 3.05848 6.95314 0 0 0 76.1458 7.45558 26.0276 15.9994
O 2.77037 6.10186 5.32351 0 0 0 -13.1685 -74.8339 25.0441 15.9994
O 4.72131 5.31252 6.78718 0 0 0 24.6011 -16.1554 -43.5059 15.9994
O 0.56532 5.66708 14.7916 0 0 0 78.8369 -50.1738 -17.6468 15.9994
O 2.36379 7.21218 16.0214 0 0 0 52.5925 18.5353 -50.628 15.9994
O -0.13338 7.10678 16.9166 0 0 0 0.723656 66.0388 20.5882 15.9994
O 2.44714 7.08806 3.00062 0 0 0 35.1789 -38.3935 -50.6688 15.9994
O 3.24168 8.1835 0.77828 0 0 0 17.9 74.3589 -32.4118 15.9994
O -1.7154 9.83255 3.12206 0 0 0 67.2497 -50.3599 19.8022 15.9994
O -1.03268 12.4533 3.12232 0 0 0 -73.5483 48.7485 3.65761 15.9994
O -2.60123 11.4842 4.9753 0 0 0 -4.73136 87.7909 2.50656 15.9994
O 0.72736 12.3757 1.15526 0 0 0 60.3223 -19.3698 35.2611 15.9994
O 3.58881 7.74213 7.16107 0 0 0 56.3569 14.8729 80.5264 15.9994
O -1.55192 9.44581 8.77977 0 0 0 29.4609 -51.1068 39.2146 15.9994
O -0.72462 11.7736 8.05994 0 0 0 -36.8919 -12.916 -69.9102 15.9994
O -2.41875 11.6361 10.0858 0 0 0 -13.236 72.2783 7.77541 15.9994
O -0.04577 10.8124 4.93123 0 0 0 -25.2783 -60.7582 40.6634 15.9994
O 1.88451 9.5857 6.17439 0 0 0 -4.63126 -70.3718 -39.5509 15.9994
O 1.43953 12.2294 6.57436 0 0 0 72.0935 32.5521 19.0079 15.9994
O 0.55055 8.29423 14.5477 0 0 0 -68.3693 -11.4345 -32.3159 15.9994
O -0.65804 12.237 16.4551 0 0 0 20.5323 53.7868 -16.5461 15.9994
O -2.19505 12.4395 14.4128 0 0 0 -62.5825 -15.6971 -35.563 15.9994
O -3.28691 12.1079 16.8413 0 0 0 -6.93264 74.2811 -20.7926 15.9994
O 0.01029 10.7532 10.4962 0 0 0 53.4472 -59.9763 -5.87738 15.9994
O 0.38141 10.5822 13.2893 0 0 0 -36.9376 4.54642 29.558 15.9994
O -0.8076 12.6332 12.1402 0 0 0 -40.4064 41.2954 -43.2197 15.9994
O 13.2313 0.94392 2.47836 0 0 0 19.1259 37.4281 -78.5697 15.9994
O 8.45628 0.82295 3.02763 0 0 0 50.6411 -29.7496 0.227731 15.9994
O 7.20925 2.37339 4.71713 0 0 0 -40.3534 60.3192 -34.8439 15.9994
O 12.3495 2.45882 4.52753 0 0 0 -8.02528 62.5006 -17.736 15.9994
O 9.83987 1.89373 5.04753 0 0 0 -16.6821 -77.4375 54.3164 15.9994
O 11.768 1.38266 6.87189 0 0 0 -38.7915 -4.97306 60.5256 15.9994
O 8.87998 3.53629 3.14623 0 0 0 -60.3621 42.8274 -9.56688 15.9994
O 10.6663 5.55138 3.3322 0 0 0 26.2288 -67.4268 47.7868 15.9994
O 5.23493 7.30609 5.17654 0 0 0 -0.927954 83.5337 5.38619 15.9994
O 8.98116 5.46826 1.27428 0 0 0 -57.0661 -53.5049 -34.5043 15.9994
O 11.0275 3.89362 6.39513 0 0 0 51.2106 61.577 -20.2755 15.9994
O 10.6856 5.32229 8.74205 0 0 0 27.0863 -67.6697 30.03 15.9994
O 6.25567 4.92268 8.86103 0 0 0 36.0041 -20.2505 29.3872 15.9994
O 10.2848 7.42589 5.10715 0 0 0 33.0059 63.8022 37.0215 15.9994
O 7.7516 6.57652 4.5771 0 0 0 11.6813 -69.144 -52.3044 15.9994
O 9.05086 5.69341 6.68703 0 0 0 -89.2567 -34.3777 28.0121 15.9994
O 10.9473 4.28173 12.9888 0 0 0 74.6194 10.0304 1.56962 15.9994
O 5.93823 5.54668 15.2559 0 0 0 -2.23517 -56.1941 1.71775 15.9994
O 7.34536 6.83149 17.0466 0 0 0 13.8633 -45.5905 11.4762 15.9994
O 4.88765 7.63581 16.5724 0 0 0 1.86078 72.3038 10.2682 15.9994
O 9.83991 7.20937 10.5123 0 0 0 3.96382 87.9829 -21.1041 15.9994
O 7.23166 6.71891 10.6472 0 0 0 -46.2194 11.6467 37.1441 15.9994
O 8.80929 5.75727 12.5198 0 0 0 -19.3426 -58.1081 15.2314 15.9994
O 6.66327 8.7814 3.5316 0 0 0 -31.5167 25.2953 26.1253 15.9994
O 8.34706 8.01132 1.64129 0 0 0 67.0073 -19.3837 61.6522 15.9994
O 8.49035 10.4231 2.74822 0 0 0 47.3602 19.8955 -64.1154 15.9994
O 3.86418 9.44497 3.01643 0 0 0 76.5139 -47.0478 -9.4986 15.9994
O 4.95622 11.9 3.15472 0 0 0 76.1344 24.1248 31.2982 15.9994
O 2.54127 11.3767 4.31497 0 0 0 -19.428 60.0069 -55.1666 15.9994
O 6.98165 11.0727 16.356 0 0 0 -48.117 21.8617 -81.8905 15.9994
O 6.48543 9.76828 1.02841 0 0 0 -68.801 -63.2061 -4.20977 15.9994
O 6.04403 12.3645 0.744 0 0 0 38.6484 50.7867 -18.0078 15.9994
O 6.421 7.57135 8.28011 0 0 0 -82.0445 -16.1577 -60.7225 15.9994
O 8.28106 8.26659 6.53134 0 0 0 42.7044 72.7788 -33.6269 15.9994
O 8.22817 9.39564 8.91105 0 0 0 20.8041 -76.1863 46.166 15.9994
O 7.38464 11.2956 5.05297 0 0 0 6.88843 46.1825 17.1483 15.9994
O 4.81723 10.4636 5.28963 0 0 0 -24.9828 -64.9927 24.0029 15.9994
O 6.41171 10.0575 7.2268 0 0 0 -53.1274 28.6275 62.8727 15.9994
O 5.69878 12.5743 6.62307 0 0 0 8.34214 57.1296 -45.2068 15.9994
O 6.69676 8.00669 14.655 0 0 0 -69.9227 -2.51689 -47.1437 15.9994
O 8.34861 8.31604 12.5113 0 0 0 65.752 53.8899 -37.0228 15.9994
O 8.74036 9.57741 14.9406 0 0 0 45.14 -16.9807 -2.51124 15.9994
O 2.5441 10.0302 14.9405 0 0 0 49.5887 -67.0732 34.2787 15.9994
O 4.36976 10.6673 16.9891 0 0 0 -47.1654 -78.724 30.1048 15.9994
O 2.06783 12.071 16.5416 0 0 0 13.9699 81.0575 -9.68741 15.9994
O 8.1261 11.0944 10.9116 0 0 0 53.0633 15.9798 69.9007 15.9994
O 6.90838 10.3519 13.258 0 0 0 -40.8573 44.7254 41.3901 15.9994
C 2.29384 2.18799 17.0062 0 0 0 -9.82185 3.29883 1.99581 12.0107
C 11.924 1.99722 16.3563 0 0 0 0.610817 -8.97369 -7.69019 12.0107
C -0.47192 1.04438 15.0544 0 0 0 -4.91479 -7.69516 -1.06622 12.0107
C -2.52494 5.68056 17.3092 0 0 0 2.30876 -6.65572 -8.20929 12.0107
C -1.39729 4.05213 8.45986 0 0 0 -0.905386 4.51718 0.826542 12.0107
C 1.53643 4.84489 7.72496 0 0 0 2.30723 -2.25057 8.73958 12.0107
C 0.53703 3.40735 13.0436 0 0 0 -2.74137 -9.5103 -6.16382 12.0107
C -1.12461 8.07714 11.9106 0 0 0 14.7133 1.10885 -5.04796 12.0107
C 0.07545 5.61059 10.7097 0 0 0 9.12095 16.044 -0.665861 12.0107
C -5.79639 12.3072 14.8617 0 0 0 5.83557 1.81005 -1.87409 12.0107
C -3.53259 10.175 12.4196 0 0 0 -5.2372 2.56238 7.22976 12.0107
C -4.60552 12.8436 11.4233 0 0 0 -0.504932 -0.777246 11.4832 12.0107
C 4.26769 3.64398 3.65406 0 0 0 -1.57187 7.01297 0.520474 12.0107
C 6.42246 3.65627 0.85871 0 0 0 6.10971 -6.56381 -18.7235 12.0107
C 5.63959 1.85143 16.2548 0 0 0 2.83104 5.57565 10.2963 12.0107
C 8.48078 1.97095 17.3757 0 0 0 4.19961 13.6065 -2.28774 12.0107
C 8.52746 0.28576 8.94715 0 0 0 -10.9881 0.439121 6.97486 12.0107
C 5.34718 1.30441 9.67544 0 0 0 0.591497 -0.999558 -13.8868 12.0107
C 2.61951 2.65838 10.6632 0 0 0 6.17891 -0.0775229 2.25676 12.0107
C 5.03218 1.37954 13.0813 0 0 0 17.1814 16.3538 15.5734 12.0107
C 7.83894 0.59328 14.1937 0 0 0 1.01827 3.24087 4.78942 12.0107
C 3.56066 5.34097 0.20558 0 0 0 -1.32553 -7.27604 1.08869 12.0107
C 3.56898 4.07838 14.4574 0 0 0 -1.87918 3.88114 -13.6399 12.0107
C 5.99751 4.38424 12.6221 0 0 0 2.41349 4.62639 -10.0384 12.0107
C 4.21257 6.74382 13.31 0 0 0 -4.00686 -12.2402 -0.698659 12.0107
C 1.10518 9.35989 2.49731 0 0 0 -7.53911 -5.8344 13.6179 12.0107
C 0.47666 9.90858 17.2955 0 0 0 -7.62529 -6.0668 -11.5578 12.0107
C 1.12056 8.0241 8.55966 0 0 0 -1.90929 30.2678 14.5265 12.0107
C 3.19157 10.0325 8.68048 0 0 0 -6.95853 -8.66991 5.12214 12.0107
C 2.34282 8.87546 12.2928 0 0 0 5.79655 -6.87738 -2.3093 12.0107
C -2.24533 9.8282 15.574 0 0 0 -1.59161 -10.1498 -4.08024 12.0107
C 2.08759 12.2082 11.7528 0 0 0 7.21489 5.76836 17.4414 12.0107
C 3.41505 13.2784 1.35195 0 0 0 -16.183 -6.06835 1.86263 12.0107
C 14.0861 0.90577 8.70464 0 0 0 -4.86182 -9.37819 5.50583 12.0107
C 4.08336 12.9566 8.95896 0 0 0 11.6987 0.465396 5.71554 12.0107
C 11.8322 2.89305 10.6953 0 0 0 0.277721 -2.52262 1.36639 12.0107
C 8.8944 2.76578 11.608 0 0 0 -2.43492 0.185967 -4.66846 12.0107
C 11.1783 1.48529 13.2074 0 0 0 4.5414 16.6361 -10.867 12.0107
C 11.1035 3.49514 1.46083 0 0 0 0.680965 -1.22404 9.40512 12.0107
C 5.71324 6.30468 2.56767 0 0 0 -2.37804 1.0079 -2.76972 12.0107
C 10.0302 7.54042 17.1522 0 0 0 1.88197 10.3946 -5.76042 12.0107
C 8.95826 3.2545 8.20272 0 0 0 -8.53704 3.53294 2.40662 12.0107
C 4.39144 6.5861 10.0591 0 0 0 -7.79205 1.43232 0.263511 12.0107
C 9.18053 4.65703 15.1292 0 0 0 4.5208 -2.04283 0.403812 12.0107
C 10.9711 6.96598 13.933 0 0 0 9.47862 4.41869 -2.12925 12.0107
C 4.34951 12.1437 14.6907 0 0 0 3.95978 -1.94047 2.12516 12.0107
C 5.49079 10.0794 10.8812 0 0 0 2.88304 -1.09908 1.77635 12.0107
C 6.34797 12.8854 12.0073 0 0 0 -6.46117 1.3547 -14.9502 12.0107
H 2.4887 1.16909 16.6519 0 0 0 0.843431 8.91018 15.3775 1.00794
H 3.18239 2.52623 17.5538 0 0 0 -33.54 15.8191 33.8179 1.00794
H 2.15322 2.85232 16.1485 0 0 0 -21.8777 -1.89839 7.43371 1.00794
H 11.6275 1.01769 15.9697 0 0 0 -4.9955 11.0076 8.52212 1.00794
H 11.2613 2.7444 15.9061 0 0 0 3.29313 3.56903 -5.27106 1.00794
H 11.7722 1.9884 17.4357 0 0 0 28.3747 -14.6215 -15.3017 1.00794
H 0.59573 1.27003 14.9808 0 0 0 -6.49145 7.04659 5.96047 1.00794
H 14.18 0.92434 14.0389 0 0 0 1.09158 16.3905 11.7709 1.00794
H 14.4632 0.08629 15.5797 0 0 0 0.472523 2.45397 6.54466 1.00794
H -2.16073 4.65451 17.2259 0 0 0 -1.88578 5.12524 8.57206 1.00794
H -2.75513 6.03565 16.301 0 0 0 12.7372 -5.86776 14.0782 1.00794
H 11.7541 5.59703 0.2905 0 0 0 5.9611 4.918 5.49264 1.00794
H -1.01543 3.49445 9.31495 0 0 0 5.3516 -2.20007 -12.5824 1.00794
H 12.7983 3.49463 8.0391 0 0 0 1.07757 -2.7791 -1.39557 1.00794
H -1.77536 5.01232 8.81713 0 0 0 7.05375 3.55563 -10.3042 1.00794
H 2.28178 4.37871 7.07671 0 0 0 -0.66151 -4.67069 -7.18217 1.00794
H 1.72784 4.50606 8.74864 0 0 0 -1.19866 0.853339 1.39986 1.00794
H 1.68437 5.92258 7.69278 0 0 0 1.7612 -26.0075 -16.7349 1.00794
H -0.1241 2.77518 12.4335 0 0 0 -6.21321 -2.41069 -1.56867 1.00794
H 1.13286 2.75143 13.6859 0 0 0 3.51579 6.21581 -0.983672 1.00794
H 1.22442 3.92221 12.3699 0 0 0 1.08166 8.62283 9.51189 1.00794
H -0.05321 8.28206 11.8416 0 0 0 -10.215 -6.02377 -8.48324 1.00794
H -1.47545 8.42174 12.885 0 0 0 -3.28183 -8.45351 6.72912 1.00794
H -1.60808 8.65747 11.1201 0 0 0 -1.52168 -4.20515 -3.08223 1.00794
H 0.13573 6.03731 9.70685 0 0 0 -16.9776 -7.96367 6.38844 1.00794
H 0.08626 4.52258 10.6235 0 0 0 -0.494603 4.54578 11.2881 1.00794
H 0.98331 5.91975 11.2512 0 0 0 3.5882 0.867286 1.48226 1.00794
H -6.46161 12.5594 14.0303 0 0 0 -8.20588 -5.44857 -0.575983 1.00794
H -4.83978 11.9539 14.4544 0 0 0 2.89486 2.11971 -0.444135 1.00794
H -5.58586 13.2115 15.4371 0 0 0 0.46393 -23.74 -3.04711 1.00794
H -2.64328 10.4168 13.0054 0 0 0 7.13731 7.21514 -7.13351 1.00794
H -3.49285 9.13078 12.1024 0 0 0 -6.31539 11.5024 -11.2892 1.00794
H -4.41393 10.2811 13.0668 0 0 0 -3.54481 -2.07262 0.260079 1.00794
H 3.64405 0.1308 11.6814 0 0 0 -17.525 -30.1608 -25.5277 1.00794
H -5.24138 12.6893 12.2999 0 0 0 0.385568 -1.48767 -4.73992 1.00794
H -5.2278 13.2528 10.6219 0 0 0 -3.53087 -2.56022 -0.904448 1.00794
H 3.56455 4.07515 2.9333 0 0 0 -7.45503 -4.64622 1.46954 1.00794
H 5.24226 3.50135 3.17884 0 0 0 -2.11156 -13.2974 15.434 1.00794
H 4.38787 4.33923 4.49045 0 0 0 2.05065 -4.91022 0.583523 1.00794
H 6.61458 4.46321 0.14329 0 0 0 1.98006 -1.08384 -7.28624 1.00794
H 7.01683 3.84273 1.75678 0 0 0 16.6018 -32.1334 -16.0276 1.00794
H 5.36124 3.6708 1.12182 0 0 0 7.11339 -17.755 -10.473 1.00794
H 5.93703 2.61918 15.5301 0 0 0 10.4521 7.1567 13.7869 1.00794
H 4.57689 1.96336 16.4693 0 0 0 60.5287 -26.5461 -17.3693 1.00794
H 5.7917 0.86311 15.827 0 0 0 -6.1602 25.2597 39.6908 1.00794
H 8.77387 1.0712 16.8247 0 0 0 -4.93756 -3.55299 -0.915786 1.00794
H 9.22118 1.92153 0.69361 0 0 0 -10.503 -0.994813 2.12419 1.00794
H 8.76765 2.84372 16.7778 0 0 0 -4.10575 -8.65384 10.9787 1.00794
H 9.42829 0.84016 8.69559 0 0 0 -4.50715 -26.9473 -11.5325 1.00794
H 1.30479 12.9519 9.6529 0 0 0 -10.9111 7.54008 -25.1461 1.00794
H 7.81245 0.9563 9.43012 0 0 0 4.0081 -3.52833 -5.21348 1.00794
H 5.77167 1.03557 8.70036 0 0 0 -8.94225 0.746095 4.89443 1.00794
H 5.37601 0.40756 10.2964 0 0 0 -4.6086 7.21373 0.907243 1.00794
H 5.99123 2.08133 10.1151 0 0 0 1.3077 6.29675 1.19974 1.00794
H 1.63587 2.92301 10.2518 0 0 0 -3.57549 -5.72725 -2.30254 1.00794
H 3.06923 3.57624 11.0672 0 0 0 6.06789 3.66318 0.371612 1.00794
H 2.45648 1.95759 11.4855 0 0 0 0.751705 -2.12776 3.44804 1.00794
H 4.02038 1.08839 13.3867 0 0 0 -4.15366 6.39042 17.3057 1.00794
H 5.03136 1.6733 12.0308 0 0 0 5.86658 4.49201 16.4604 1.00794
H 5.29486 2.25804 13.6679 0 0 0 -10.1089 -22.7981 -7.68337 1.00794
H 8.44151 0.91529 13.3378 0 0 0 -0.90393 -8.91393 5.72957 1.00794
H 0.8857 13.238 14.6983 0 0 0 0.107698 -5.47475 -4.53065 1.00794
H 7.76576 1.43399 14.8874 0 0 0 -1.99766 4.72408 -8.83648 1.00794
H 3.89413 4.77754 17.075 0 0 0 3.373 -0.644445 -3.21092 1.00794
H 2.50719 5.04314 0.26939 0 0 0 -0.598542 5.82076 -4.97214 1.00794
H 4.01708 5.16648 1.17862 0 0 0 -20.1084 2.45648 -24.3481 1.00794
H 3.89095 3.25848 15.1009 0 0 0 0.95052 17.3658 -15.295 1.00794
H 3.13422 3.63279 13.5543 0 0 0 6.61847 0.714157 -3.5536 1.00794
H 2.78351 4.65192 14.9628 0 0 0 2.16957 5.77371 2.20183 1.00794
H 5.36755 3.91066 11.8578 0 0 0 -5.62283 3.93935 -4.89576 1.00794
H 6.65292 3.61284 13.0353 0 0 0 -29.397 28.2684 20.019 1.00794
H 6.63951 5.11796 12.1358 0 0 0 -16.4666 -9.43488 7.77922 1.00794
H 3.81976 7.35282 14.1318 0 0 0 2.69846 0.852833 1.87722 1.00794
H 3.36619 6.46982 12.6705 0 0 0 6.52334 -19.7237 8.04818 1.00794
H 4.91006 7.34775 12.7206 0 0 0 14.5734 -2.27367 0.782439 1.00794
H 0.90896 9.26244 3.56946 0 0 0 -0.326614 -11.2503 -16.4218 1.00794
H 0.31895 8.78621 2.01085 0 0 0 20.2492 -12.1956 25.6012 1.00794
H 1.04124 10.4115 2.21906 0 0 0 13.5843 -5.59551 9.73294 1.00794
H 1.36734 9.35502 17.5879 0 0 0 -11.0244 20.2213 -20.747 1.00794
H 0.25655 9.66212 16.2554 0 0 0 -2.5193 16.2139 24.1334 1.00794
H -0.21598 9.48879 0.27425 0 0 0 -3.97059 26.7761 -24.6914 1.00794
H 1.65029 7.35001 9.24469 0 0 0 7.04409 9.94964 7.51288 1.00794
H 0.34088 7.47368 8.032 0 0 0 2.2389 5.03205 -8.40483 1.00794
H 0.6338 8.78193 9.1797 0 0 0 10.5257 -5.18648 2.55498 1.00794
H 4.0724 10.513 8.25387 0 0 0 -0.0250883 -11.7336 -19.2974 1.00794
H 3.49242 9.47621 9.57235 0 0 0 -13.9345 -8.27067 -9.21381 1.00794
H 2.45748 10.7836 8.98761 0 0 0 -18.2385 -21.6409 0.770269 1.00794
H 2.04743 9.48339 11.4289 0 0 0 8.25284 -8.90951 -4.65539 1.00794
H 2.08128 7.84064 12.05 0 0 0 -16.1276 7.32317 -4.02145 1.00794
H 3.42805 8.92617 12.4004 0 0 0 -2.98428 10.7868 7.16831 1.00794
H -2.16244 9.27095 16.5126 0 0 0 -1.20876 -0.670364 3.01568 1.00794
H -1.52157 9.42283 14.8596 0 0 0 -0.701089 6.28481 -1.1777 1.00794
H -3.25346 9.65202 15.1726 0 0 0 -4.69948 -2.16696 0.754408 1.00794
H 2.63056 11.7559 10.9151 0 0 0 0.468098 -6.22598 4.64965 1.00794
H 2.65508 12.0034 12.6662 0 0 0 -40.0349 -25.9538 -40.9841 1.00794
H 2.08297 13.2908 11.5971 0 0 0 -9.07262 0.671159 0.985027 1.00794
H 2.9664 12.2916 1.23218 0 0 0 21.3117 -7.04667 7.98806 1.00794
H 10.8064 0.35084 0.40541 0 0 0 2.70362 -10.9769 1.24961 1.00794
H 10.3263 0.33297 2.12486 0 0 0 30.4019 -3.22479 -6.42093 1.00794
H -0.2305 1.55171 8.20977 0 0 0 -6.67245 -14.4157 18.4306 1.00794
H 7.11827 13.4699 9.07378 0 0 0 -5.60299 6.53324 7.70769 1.00794
H 13.6746 1.4349 9.57039 0 0 0 9.48564 -8.35986 -1.34627 1.00794
H 4.62753 12.1692 9.49081 0 0 0 3.90055 9.41977 1.97735 1.00794
H 3.19117 12.5272 8.50958 0 0 0 14.5595 22.8626 -18.715 1.00794
H 11.2709 0.24574 9.70249 0 0 0 -8.46483 -45.5888 -5.13188 1.00794
H 11.6852 2.01129 10.0634 0 0 0 -0.329406 48.8351 13.0932 1.00794
H 12.8675 2.87757 11.064 0 0 0 0.812527 1.31046 10.5074 1.00794
H 11.7066 3.77711 10.0706 0 0 0 -7.72537 -6.02223 12.4458 1.00794
H 8.24069 2.8162 12.4841 0 0 0 41.5741 -13.66 -10.8406 1.00794
H 8.69592 1.81367 11.099 0 0 0 6.48945 3.83969 7.85051 1.00794
H 8.59837 3.57967 10.9378 0 0 0 3.40241 8.2328 -0.684565 1.00794
H 11.2595 0.58985 12.5842 0 0 0 2.22304 29.0668 -24.2419 1.00794
H 10.4946 1.2852 14.0373 0 0 0 -8.62488 9.64368 2.23592 1.00794
H 12.1739 1.6915 13.6177 0 0 0 -0.938098 4.689 -4.25807 1.00794
H 10.93 3.48978 0.38432 0 0 0 -20.5413 26.6119 4.95947 1.00794
H 11.0266 2.4625 1.82053 0 0 0 0.369928 2.52846 9.0061 1.00794
H 12.125 3.83203 1.65457 0 0 0 -1.37985 5.18389 2.29441 1.00794
H 6.08329 5.28183 2.55577 0 0 0 -7.65719 46.7706 33.1681 1.00794
H 5.98034 6.77277 1.61388 0 0 0 -0.331769 3.69487 -1.91506 1.00794
H 4.62271 6.27864 2.64819 0 0 0 10.6697 13.1476 20.9136 1.00794
H 10.2825 6.79537 16.3966 0 0 0 -10.8034 -1.98671 4.38833 1.00794
H -3.97082 7.6458 0.16354 0 0 0 -9.3255 0.239155 -1.02911 1.00794
H 9.77394 8.4682 16.6372 0 0 0 6.5292 -9.02291 6.1886 1.00794
H 8.60337 2.53973 7.45708 0 0 0 2.69499 2.65771 -10.2133 1.00794
H 8.09754 3.64997 8.74929 0 0 0 9.28955 -2.08156 1.29811 1.00794
H 9.61245 2.73702 8.91151 0 0 0 7.08991 28.249 5.31652 1.00794
H 3.72829 6.4207 9.20154 0 0 0 -2.99791 -4.08259 1.84642 1.00794
H 4.12921 7.54616 10.5123 0 0 0 4.0782 3.9614 -1.13644 1.00794
H 4.20522 5.78938 10.7878 0 0 0 0.892438 -7.67441 -3.31582 1.00794
H 9.93878 4.46228 15.9007 0 0 0 4.33507 8.29779 0.358566 1.00794
H 8.75405 3.68995 14.8257 0 0 0 -2.53349 -1.21741 -8.83525 1.00794
H 8.37528 5.24422 15.5768 0 0 0 6.93705 1.93557 -7.69028 1.00794
H -3.7231 7.33084 12.9574 0 0 0 -5.11448 -12.1161 5.61611 1.00794
H -3.16935 6.77972 14.5335 0 0 0 -1.09974 4.01668 -14.489 1.00794
H 10.3909 7.76836 14.4 0 0 0 -5.26121 0.205856 -1.34572 1.00794
H 5.00791 11.4018 14.2178 0 0 0 -4.63634 -0.643243 -0.126872 1.00794
H 4.99566 12.8579 15.2089 0 0 0 -0.312482 -17.21 -0.184696 1.00794
H 3.79047 12.6798 13.9266 0 0 0 27.8875 -21.4771 70.7516 1.00794
H 5.69951 9.0175 11.0673 0 0 0 4.65905 -0.6913 3.13977 1.00794
H 5.53204 10.243 9.80044 0 0 0 18.9422 1.95416 1.83987 1.00794
H 4.47579 10.2991 11.2282 0 0 0 6.47644 14.7314 8.59551 1.00794
H 5.65142 13.0781 12.8238 0 0 0 6.23053 -10.5826 -11.4452 1.00794
H 5.9152 13.2843 11.0821 0 0 0 -3.92123 -2.24398 2.74399 1.00794
H 7.28226 13.4356 12.1878 0 0 0 6.59268 0.0271049 -2.28144 1.00794
366
Timestep=74 Time=74.000000 pbc="T T T" Lattice="15.0372 0 0 -7.49312 13.4543 0 -0.158529 0.080717 17.6074" Potential_energy=575.1293475270181 Temperature=0 Stress="19236.820375245446 2056.9597691156505 5125.774461391254 2056.9597691156505 14602.523815771514 5457.421917433532 5125.774461391254 5457.421917433532 23838.042268568264" Properties=species:S:1:pos:R:3:vel:R:3:forces:R:3:mass:R:1
Si -4.9389 13.3168 2.37777 0 0 0 1.32014 -0.754872 0.116921 28.0855
Si 13.456 2.10987 3.49372 0 0 0 1.03827 -1.77478 -1.52803 28.0855
Si 1.11584 1.94672 0.662437 0 0 0 -1.14994 1.99463 0.133441 28.0855
Si -5.40735 13.1372 7.54135 0 0 0 -0.247838 -2.36518 -3.04512 28.0855
Si 0.767899 1.66845 5.41826 0 0 0 -0.76987 -1.39756 0.369515 28.0855
Si 13.6582 2.27142 16.1887 0 0 0 -0.0630742 -0.272502 -0.978512 28.0855
Si 0.354348 4.22226 2.36448 0 0 0 -0.384769 2.52464 -2.8263 28.0855
Si -3.59924 7.20358 3.99837 0 0 0 -1.55731 -0.486765 -1.45574 28.0855
Si -0.794854 6.58864 0.592802 0 0 0 -2.31763 2.73047 3.30492 28.0855
Si -0.284784 4.19801 6.90501 0 0 0 -0.76891 -0.0325896 -0.485961 28.0855
Si 11.2131 6.47999 9.63123 0 0 0 2.09114 -1.57618 -0.52959 28.0855
Si -0.861933 6.92081 5.5429 0 0 0 1.7547 0.804888 -1.14897 28.0855
Si -0.546745 4.60087 14.3106 0 0 0 0.972708 0.572136 1.31524 28.0855
Si -1.34862 6.28379 11.7627 0 0 0 -0.926684 -0.150004 0.131204 28.0855
Si -2.50439 9.0652 1.98725 0 0 0 -2.09488 0.957176 1.20161 28.0855
Si 8.61212 11.4529 4.14968 0 0 0 1.76545 -0.897725 0.448292 28.0855
Si -4.07732 11.1292 0.395274 0 0 0 -1.03162 2.28961 -1.48861 28.0855
Si -2.4688 8.53587 7.67177 0 0 0 -0.281274 -0.675065 -0.277725 28.0855
Si 8.85647 10.7271 9.4908 0 0 0 1.03049 0.456337 1.0576 28.0855
Si -3.9619 10.8727 5.94347 0 0 0 0.859107 -0.566062 0.0759531 28.0855
Si 8.43328 10.8372 16.107 0 0 0 -3.36925 -0.4369 -0.945641 28.0855
Si -3.79621 11.4445 10.8157 0 0 0 1.98405 0.879728 0.403517 28.0855
Si 7.39242 0.0694907 2.33028 0 0 0 1.57138 0.0586369 1.40016 28.0855
Si 3.67301 1.97644 4.26559 0 0 0 1.1084 -0.0458222 0.150289 28.0855
Si 6.83437 2.00168 0.238234 0 0 0 0.924886 -0.319717 0.593723 28.0855
Si 0.142557 12.6384 7.31379 0 0 0 0.0208811 -0.491076 -0.144177 28.0855
Si 3.53915 2.22158 9.01535 0 0 0 -0.279394 0.368162 -0.287847 28.0855
Si 6.29814 1.65536 5.89763 0 0 0 1.17371 0.89788 1.45369 28.0855
Si -1.32789 13.479 13.3596 0 0 0 -0.395301 -0.578435 0.300517 28.0855
Si 1.78539 6.10998 4.15872 0 0 0 1.90017 -0.570834 -3.73791 28.0855
Si 3.44553 7.37836 17.1036 0 0 0 -0.0134939 0.219087 -0.168492 28.0855
Si 5.53276 4.12115 7.67677 0 0 0 0.859811 0.244476 1.8515 28.0855
Si 4.30042 6.3591 5.97989 0 0 0 0.516064 0.939319 0.111195 28.0855
Si 5.06148 5.24764 14.2044 0 0 0 -0.107391 -0.137143 0.777398 28.0855
Si 0.720564 7.03021 15.6129 0 0 0 -1.16236 2.29369 -0.0151706 28.0855
Si 2.74639 8.34856 2.28749 0 0 0 -0.749914 -0.182646 0.164507 28.0855
Si -1.37401 11.1824 4.01367 0 0 0 -0.343038 1.11659 0.0500231 28.0855
Si 0.404454 11.9148 17.3291 0 0 0 1.39557 1.319 2.0012 28.0855
Si 2.56893 8.45821 7.43412 0 0 0 0.393204 -0.390084 -0.417396 28.0855
Si -1.35667 10.9126 9.29192 0 0 0 -1.78259 0.449922 -1.44974 28.0855
Si 1.36959 10.6059 5.54143 0 0 0 -0.423258 -0.240353 -2.70113 28.0855
Si 1.34506 9.38161 13.7946 0 0 0 0.192896 0.380852 -1.55028 28.0855
Si -2.26806 11.8743 15.7926 0 0 0 -0.0780848 -1.2877 -0.396906 28.0855
Si 0.267079 11.4933 11.8081 0 0 0 -0.607742 0.272746 -1.40251 28.0855
Si 4.97957 12.8731 2.056 0 0 0 0.440007 0.0406203 2.81733 28.0855
Si 8.68051 2.39086 4.1212 0 0 0 -0.00718931 -0.739179 -0.127303 28.0855
Si 12.4619 0.350735 7.65601 0 0 0 0.354726 -0.382277 -0.636985 28.0855
Si 11.233 2.61159 5.85495 0 0 0 1.83452 1.30884 -1.89803 28.0855
Si 10.8255 2.94014 12.1282 0 0 0 -0.261575 0.343888 0.0786093 28.0855
Si 9.90703 4.83548 2.52372 0 0 0 -0.910225 0.755761 -1.31012 28.0855
Si 6.45267 7.34307 4.09884 0 0 0 2.40703 0.347285 -0.0173288 28.0855
Si 8.74484 7.07036 0.697926 0 0 0 0.756142 1.18068 -0.373998 28.0855
Si 9.76872 4.70691 7.61792 0 0 0 0.459506 -0.516563 0.333214 28.0855
Si 6.21332 6.66169 9.36096 0 0 0 -0.268371 -0.625093 -1.47193 28.0855
Si 8.83588 7.02218 5.88611 0 0 0 2.79617 -0.797885 -1.48481 28.0855
Si 10.0838 5.46043 13.4191 0 0 0 -0.406186 -0.249833 0.303882 28.0855
Si 6.30153 7.14331 16.0039 0 0 0 1.05512 -0.614528 -1.71215 28.0855
Si 8.74241 7.24852 11.3607 0 0 0 0.908359 -1.26812 -1.58719 28.0855
Si 7.63543 9.38688 2.27031 0 0 0 -0.387116 -0.0404863 -0.694975 28.0855
Si 3.97975 10.6406 4.00111 0 0 0 0.199324 -1.38921 -0.463221 28.0855
Si 5.92823 10.8609 0.0443545 0 0 0 -1.04126 2.90884 1.55257 28.0855
Si 7.31091 9.03887 7.61933 0 0 0 1.12042 -1.94146 -0.233571 28.0855
Si 5.98582 11.3649 6.01869 0 0 0 1.78306 -1.74871 3.34342 28.0855
Si 7.87851 8.94277 13.8872 0 0 0 -0.765856 1.64035 -0.0169394 28.0855
Si 3.07009 11.1233 15.921 0 0 0 -0.141987 0.975788 -0.26426 28.0855
Si 6.81074 10.9434 11.8595 0 0 0 0.270118 -0.0464695 0.527424 28.0855
O 1.32737 0.33642 1.24857 0 0 0 -0.563722 -0.360122 -0.127396 15.9994
O -0.18266 1.27657 4.04512 0 0 0 -0.00621176 0.886995 0.071433 15.9994
O 1.17851 0.150752 6.15727 0 0 0 0.73368 0.110449 1.34091 15.9994
O -0.473297 2.32245 0.115311 0 0 0 0.790034 -0.217184 0.251467 15.9994
O -1.15282 3.43717 2.47564 0 0 0 -1.35678 -0.282409 1.54468 15.9994
O 1.46887 3.0375 1.90912 0 0 0 0.206962 -1.31264 -0.615192 15.9994
O 0.41126 5.53993 1.23615 0 0 0 1.10594 -1.33974 0.339056 15.9994
O -0.275054 2.55766 6.44123 0 0 0 -0.326021 1.21092 0.16889 15.9994
O -1.90584 7.3013 4.27994 0 0 0 0.359692 1.1146 1.40504 15.9994
O -1.11946 5.25001 5.85223 0 0 0 -0.0463884 -1.01385 0.802354 15.9994