243
Timestep=0 Time=0.000000 pbc="T T T" Lattice="14.6913 0 0 -7.34565 12.723 0 0 0 15.9631" Potential_energy=3352.9534179020393 Temperature=0 Stress="295046.4207638405 -2.810129417488389 -8.928340332475972 -2.810129417488389 295043.6753482448 7.753700384194438 -8.928340332475972 7.753700384194438 274815.323554286" Properties=species:S:1:pos:R:3:vel:R:3:forces:R:3:mass:R:1
Si 2.31315 0 1.77366 0 0 0 30.7674 -0.00926426 0.0990027 28.0855
Si -1.15657 2.00324 3.54732 0 0 0 -15.3824 26.6603 0.0923721 28.0855
Si 1.29203 2.23786 0 0 0 0 -15.5026 -26.8528 0.001401 28.0855
Si 2.31315 0 7.09464 0 0 0 30.761 -0.00478814 0.105423 28.0855
Si -1.15657 2.00324 8.86846 0 0 0 -15.3899 26.6485 -0.104879 28.0855
Si 1.29203 2.23786 5.32098 0 0 0 -15.4949 -26.8223 0.0974436 28.0855
Si 2.31315 0 12.4158 0 0 0 30.7675 0.00756991 -0.0918301 28.0855
Si -1.15657 2.00324 14.1894 0 0 0 -15.3969 26.6518 -0.098459 28.0855
Si 1.29203 2.23786 10.6421 0 0 0 -15.4801 -26.8309 -0.0946415 28.0855
Si -0.13538 4.24097 1.77366 0 0 0 30.7124 0.0643018 0.0660818 28.0855
Si 11.0862 6.24421 3.54732 0 0 0 -15.4169 26.6948 0.141265 28.0855
Si -1.1565 6.47883 0 0 0 0 -15.5747 -26.7054 0.00742515 28.0855
Si -0.13538 4.24097 7.09464 0 0 0 30.706 0.0687783 0.0725015 28.0855
Si 11.0862 6.24421 8.86846 0 0 0 -15.4244 26.683 -0.0559813 28.0855
Si -1.1565 6.47883 5.32098 0 0 0 -15.567 -26.6749 0.103469 28.0855
Si -0.13538 4.24097 12.4158 0 0 0 30.7125 0.0811322 -0.124756 28.0855
Si 11.0862 6.24421 14.1894 0 0 0 -15.4314 26.6863 -0.0495609 28.0855
Si -1.1565 6.47883 10.6421 0 0 0 -15.5522 -26.6835 -0.0886289 28.0855
Si -2.58398 8.48207 1.77366 0 0 0 30.7677 -0.0436827 0.113103 28.0855
Si -6.05362 10.4852 3.54732 0 0 0 -15.4839 26.8275 0.0951383 28.0855
Si -3.60502 10.7198 0 0 0 0 -15.593 -26.6857 0.0116411 28.0855
Si -2.58398 8.48207 7.09464 0 0 0 30.7613 -0.0392071 0.119524 28.0855
Si -6.05362 10.4852 8.86846 0 0 0 -15.4914 26.8157 -0.102088 28.0855
Si -3.60502 10.7198 5.32098 0 0 0 -15.5853 -26.6552 0.107684 28.0855
Si -2.58398 8.48207 12.4158 0 0 0 30.7678 -0.0268442 -0.0777281 28.0855
Si -6.05362 10.4852 14.1894 0 0 0 -15.4985 26.819 -0.0956662 28.0855
Si -3.60502 10.7198 10.6421 0 0 0 -15.5705 -26.6638 -0.084412 28.0855
Si 7.2102 0 1.77366 0 0 0 30.8153 -0.0250448 0.0498389 28.0855
Si 3.74048 2.00324 3.54732 0 0 0 -15.2862 26.6394 0.124812 28.0855
Si 6.18908 2.23786 0 0 0 0 -15.3364 -26.8454 -0.00631443 28.0855
Si 7.2102 0 7.09464 0 0 0 30.8089 -0.0205691 0.0562592 28.0855
Si 3.74048 2.00324 8.86846 0 0 0 -15.2936 26.6276 -0.0724457 28.0855
Si 6.18908 2.23786 5.32098 0 0 0 -15.3287 -26.815 0.0897397 28.0855
Si 7.2102 0 12.4158 0 0 0 30.8154 -0.00820408 -0.140988 28.0855
Si 3.74048 2.00324 14.1894 0 0 0 -15.3007 26.6309 -0.066026 28.0855
Si 6.18908 2.23786 10.6421 0 0 0 -15.3139 -26.8235 -0.102358 28.0855
Si 4.76167 4.24097 1.77366 0 0 0 30.7603 0.048539 0.0169175 28.0855
Si 1.29195 6.24421 3.54732 0 0 0 -15.3207 26.674 0.173698 28.0855
Si 3.74055 6.47883 0 0 0 0 -15.4085 -26.698 -0.00026938 28.0855
Si 4.76167 4.24097 7.09464 0 0 0 30.7539 0.0530152 0.0233372 28.0855
Si 1.29195 6.24421 8.86846 0 0 0 -15.3281 26.6621 -0.0235543 28.0855
Si 3.74055 6.47883 5.32098 0 0 0 -15.4008 -26.6676 0.0957857 28.0855
Si 4.76167 4.24097 12.4158 0 0 0 30.7604 0.0653759 -0.173915 28.0855
Si 1.29195 6.24421 14.1894 0 0 0 -15.3352 26.6655 -0.0171346 28.0855
Si 3.74055 6.47883 10.6421 0 0 0 -15.386 -26.6761 -0.0963241 28.0855
Si 2.31307 8.48207 1.77366 0 0 0 30.8156 -0.0594475 0.0639403 28.0855
Si -1.15657 10.4852 3.54732 0 0 0 -15.3877 26.8066 0.127587 28.0855
Si 1.29203 10.7198 0 0 0 0 -15.4268 -26.6783 0.00395056 28.0855
Si 2.31307 8.48207 7.09464 0 0 0 30.8092 -0.0549722 0.070361 28.0855
Si -1.15657 10.4852 8.86846 0 0 0 -15.3952 26.7948 -0.0696456 28.0855
Si 1.29203 10.7198 5.32098 0 0 0 -15.4191 -26.6479 0.100005 28.0855
Si 2.31307 8.48207 12.4158 0 0 0 30.8157 -0.0426024 -0.126886 28.0855
Si -1.15657 10.4852 14.1894 0 0 0 -15.4023 26.7981 -0.0632248 28.0855
Si 1.29203 10.7198 10.6421 0 0 0 -15.4043 -26.6564 -0.0921033 28.0855
Si 12.1072 0 1.77366 0 0 0 30.9661 -0.00847703 0.0922802 28.0855
Si 8.63768 2.00324 3.54732 0 0 0 -15.4051 26.6365 0.0770941 28.0855
Si 11.0861 2.23786 0 0 0 0 -15.3126 -26.8492 -0.0108081 28.0855
Si 12.1072 0 7.09464 0 0 0 30.9597 -0.00400047 0.0987017 28.0855
Si 8.63768 2.00324 8.86846 0 0 0 -15.4126 26.6247 -0.120158 28.0855
Si 11.0861 2.23786 5.32098 0 0 0 -15.3049 -26.8188 0.0852452 28.0855
Si 12.1072 0 12.4158 0 0 0 30.9662 0.00838669 -0.0985254 28.0855
Si 8.63768 2.00324 14.1894 0 0 0 -15.4197 26.628 -0.113737 28.0855
Si 11.0861 2.23786 10.6421 0 0 0 -15.2901 -26.8273 -0.106851 28.0855
Si 9.65872 4.24097 1.77366 0 0 0 30.9075 0.0623986 0.0604295 28.0855
Si 6.18915 6.24421 3.54732 0 0 0 -15.4382 26.6714 0.126125 28.0855
Si 8.6376 6.47883 0 0 0 0 -15.3847 -26.7018 -0.00481842 28.0855
Si 9.65872 4.24097 7.09464 0 0 0 30.9011 0.0668755 0.0668504 28.0855
Si 6.18915 6.24421 8.86846 0 0 0 -15.4457 26.6596 -0.0711216 28.0855
Si 8.6376 6.47883 5.32098 0 0 0 -15.377 -26.6714 0.0912358 28.0855
Si 9.65872 4.24097 12.4158 0 0 0 30.9076 0.079258 -0.130382 28.0855
Si 6.18915 6.24421 14.1894 0 0 0 -15.4527 26.6629 -0.0647007 28.0855
Si 8.6376 6.47883 10.6421 0 0 0 -15.3622 -26.6799 -0.100873 28.0855
Si 7.21012 8.48207 1.77366 0 0 0 30.9664 -0.0428946 0.106386 28.0855
Si 3.74063 10.4852 3.54732 0 0 0 -15.5052 26.804 0.0800012 28.0855
Si 6.18908 10.7198 0 0 0 0 -15.403 -26.6821 -0.000598615 28.0855
Si 7.21012 8.48207 7.09464 0 0 0 30.96 -0.0384185 0.112808 28.0855
Si 3.74063 10.4852 8.86846 0 0 0 -15.5127 26.7922 -0.117225 28.0855
Si 6.18908 10.7198 5.32098 0 0 0 -15.3953 -26.6517 0.0954548 28.0855
Si 7.21012 8.48207 12.4158 0 0 0 30.9665 -0.0260265 -0.0844179 28.0855
Si 3.74063 10.4852 14.1894 0 0 0 -15.5198 26.7955 -0.110803 28.0855
Si 6.18908 10.7198 10.6421 0 0 0 -15.3805 -26.6602 -0.0966519 28.0855
O 1.39391 1.11759 1.12093 0 0 0 -99.0176 -2.69298 53.6854 15.9994
O 0.27091 1.76596 4.20021 0 0 0 47.1013 -87.1306 -53.7877 15.9994
O 1.39391 1.11759 6.44191 0 0 0 -99.0205 -2.68802 53.6909 15.9994
O 0.27091 1.76596 14.8422 0 0 0 47.1775 -87.1004 -53.6869 15.9994
O 0.27091 1.76596 9.52119 0 0 0 47.1833 -87.1004 -53.6924 15.9994
O 1.39391 1.11759 11.7629 0 0 0 -99.0057 -2.77406 53.7862 15.9994
O -1.05461 3.12338 2.42655 0 0 0 -99.0164 2.81823 -53.8308 15.9994
O 0.78371 3.5926 0.65289 0 0 0 51.9388 84.4148 -53.82 15.9994
O -1.05469 5.35869 1.12093 0 0 0 -98.9366 -2.80696 53.7692 15.9994
O -1.05461 3.12338 7.74753 0 0 0 -99.014 2.76418 -53.7655 15.9994
O 0.78371 3.5926 5.97387 0 0 0 51.9371 84.4125 -53.8165 15.9994
O -2.17762 6.00693 4.20021 0 0 0 47.1024 -87.1345 -53.7835 15.9994
O -1.05469 5.35869 6.44191 0 0 0 -98.9395 -2.80199 53.7747 15.9994
O -1.05461 3.12338 13.0685 0 0 0 -99.0315 2.73245 -53.735 15.9994
O 0.78371 3.5926 11.2949 0 0 0 51.8704 84.4687 -53.721 15.9994
O -2.17762 6.00693 14.8422 0 0 0 47.1786 -87.1043 -53.6827 15.9994
O -2.17762 6.00693 9.52119 0 0 0 47.1843 -87.1044 -53.6882 15.9994
O -1.05469 5.35869 11.7629 0 0 0 -98.9247 -2.88803 53.87 15.9994
O -3.50314 7.36435 2.42655 0 0 0 -98.9951 2.83813 -53.8564 15.9994
O -1.66489 7.8337 0.65289 0 0 0 51.9641 84.3322 -53.8602 15.9994
O -5.95174 11.6054 2.42655 0 0 0 -99.0062 2.77314 -53.7869 15.9994
O -3.50321 9.59966 1.12093 0 0 0 -99.0147 -2.74681 53.7305 15.9994
O -4.11342 12.0747 0.65289 0 0 0 51.9742 84.321 -53.8553 15.9994
O -3.50314 7.36435 7.74753 0 0 0 -98.9927 2.78407 -53.7911 15.9994
O -1.66489 7.8337 5.97387 0 0 0 51.9624 84.3298 -53.8567 15.9994
O -5.95174 11.6054 7.74753 0 0 0 -99.0037 2.71909 -53.7216 15.9994
O -4.62622 10.248 4.20021 0 0 0 47.184 -87.1727 -53.7712 15.9994
O -3.50321 9.59966 6.44191 0 0 0 -99.0177 -2.74185 53.736 15.9994
O -4.11342 12.0747 5.97387 0 0 0 51.9726 84.3186 -53.8519 15.9994
O -3.50314 7.36435 13.0685 0 0 0 -99.0103 2.75234 -53.7605 15.9994
O -1.66489 7.8337 11.2949 0 0 0 51.8957 84.3861 -53.7612 15.9994
O -4.62622 10.248 14.8422 0 0 0 47.2602 -87.1425 -53.6705 15.9994
O -5.95174 11.6054 13.0685 0 0 0 -99.0213 2.68736 -53.691 15.9994
O -4.62622 10.248 9.52119 0 0 0 47.266 -87.1425 -53.6759 15.9994
O -3.50321 9.59966 11.7629 0 0 0 -99.0028 -2.82789 53.8313 15.9994
O -4.11342 12.0747 11.2949 0 0 0 51.9059 84.3749 -53.7564 15.9994
O 3.23223 0.64837 2.89459 0 0 0 51.8854 -84.3968 53.7382 15.9994
O 2.71943 2.47501 4.66825 0 0 0 47.2169 87.1555 53.7214 15.9994
O 6.29096 1.11759 1.12093 0 0 0 -99.0221 -2.69442 53.6813 15.9994
O 3.23223 0.64837 8.21557 0 0 0 51.9041 -84.3657 53.7687 15.9994
O 2.71943 2.47501 9.98923 0 0 0 47.1348 87.1852 53.8169 15.9994
O 5.16811 1.76596 4.20021 0 0 0 46.9597 -87.1159 -53.8719 15.9994
O 6.29096 1.11759 6.44191 0 0 0 -99.025 -2.68946 53.6867 15.9994
O 3.23223 0.64837 13.5366 0 0 0 51.9521 -84.3408 53.834 15.9994
O 5.16811 1.76596 14.8422 0 0 0 47.0359 -87.0856 -53.7711 15.9994
O 2.71943 2.47501 15.3102 0 0 0 47.136 87.1878 53.8204 15.9994
O 5.16811 1.76596 9.52119 0 0 0 47.0416 -87.0857 -53.7766 15.9994
O 6.29096 1.11759 11.7629 0 0 0 -99.0102 -2.7755 53.782 15.9994
O 3.84244 3.12338 2.42655 0 0 0 -99.0182 2.81411 -53.8345 15.9994
O 5.68091 3.5926 0.65289 0 0 0 51.8783 84.4586 -53.7582 15.9994
O 0.78371 4.88934 2.89459 0 0 0 51.8785 -84.403 53.7377 15.9994
O 0.27083 6.71611 4.66825 0 0 0 47.2798 87.1242 53.6619 15.9994
O 3.84236 5.35869 1.12093 0 0 0 -98.9411 -2.8084 53.7651 15.9994
O 3.84244 3.12338 7.74753 0 0 0 -99.0157 2.76006 -53.7692 15.9994
O 5.68091 3.5926 5.97387 0 0 0 51.8766 84.4562 -53.7547 15.9994
O 0.78371 4.88934 8.21557 0 0 0 51.8972 -84.372 53.7683 15.9994
O 0.27083 6.71611 9.98923 0 0 0 47.1977 87.1538 53.7573 15.9994
O 2.71958 6.00693 4.20021 0 0 0 46.9607 -87.1198 -53.8677 15.9994
O 3.84236 5.35869 6.44191 0 0 0 -98.944 -2.80344 53.7705 15.9994
O 3.84244 3.12338 13.0685 0 0 0 -99.0333 2.72833 -53.7387 15.9994
O 5.68091 3.5926 11.2949 0 0 0 51.81 84.5125 -53.6592 15.9994
O 0.78371 4.88934 13.5366 0 0 0 51.9452 -84.347 53.8336 15.9994
O 2.71958 6.00693 14.8422 0 0 0 47.0369 -87.0896 -53.767 15.9994
O 0.27083 6.71611 15.3102 0 0 0 47.199 87.1565 53.7608 15.9994
O 2.71958 6.00693 9.52119 0 0 0 47.0426 -87.0896 -53.7724 15.9994
O 3.84236 5.35869 11.7629 0 0 0 -98.9292 -2.88948 53.8659 15.9994
O 1.39391 7.36435 2.42655 0 0 0 -98.9969 2.83401 -53.8601 15.9994
O 3.23231 7.8337 0.65289 0 0 0 51.9036 84.376 -53.7984 15.9994
O -1.66489 9.13043 2.89459 0 0 0 51.8757 -84.4582 53.7213 15.9994
O -1.05469 11.6054 2.42655 0 0 0 -99.0079 2.76902 -53.7905 15.9994
O -2.17769 10.9571 4.66825 0 0 0 47.2789 87.1192 53.6603 15.9994
O 1.39384 9.59966 1.12093 0 0 0 -99.0193 -2.74826 53.7264 15.9994
O 0.78378 12.0747 0.65289 0 0 0 51.9137 84.3648 -53.7935 15.9994
O 1.39391 7.36435 7.74753 0 0 0 -98.9945 2.77995 -53.7948 15.9994
O 3.23231 7.8337 5.97387 0 0 0 51.9019 84.3736 -53.7949 15.9994
O -1.66489 9.13043 8.21557 0 0 0 51.8944 -84.4271 53.7518 15.9994
O -1.05469 11.6054 7.74753 0 0 0 -99.0055 2.71497 -53.7252 15.9994
O -2.17769 10.9571 9.98923 0 0 0 47.1968 87.1488 53.7558 15.9994
O 0.27098 10.248 4.20021 0 0 0 47.0424 -87.158 -53.8555 15.9994
O 1.39384 9.59966 6.44191 0 0 0 -99.0222 -2.7433 53.7318 15.9994
O 0.78378 12.0747 5.97387 0 0 0 51.9121 84.3624 -53.79 15.9994
O 1.39391 7.36435 13.0685 0 0 0 -99.012 2.74822 -53.7642 15.9994
O 3.23231 7.8337 11.2949 0 0 0 51.8352 84.4298 -53.6994 15.9994
O -1.66489 9.13043 13.5366 0 0 0 51.9424 -84.4021 53.8171 15.9994
O 0.27098 10.248 14.8422 0 0 0 47.1186 -87.1278 -53.7547 15.9994
O -1.05469 11.6054 13.0685 0 0 0 -99.0231 2.68324 -53.6947 15.9994
O -2.17769 10.9571 15.3102 0 0 0 47.1981 87.1514 53.7593 15.9994
O 0.27098 10.248 9.52119 0 0 0 47.1243 -87.1278 -53.7601 15.9994
O 1.39384 9.59966 11.7629 0 0 0 -99.0073 -2.82934 53.8271 15.9994
O 0.78378 12.0747 11.2949 0 0 0 51.8454 84.4186 -53.6945 15.9994
O 13.0265 0.64837 2.89459 0 0 0 51.8409 -84.4148 53.6931 15.9994
O 8.12928 0.64837 2.89459 0 0 0 51.8912 -84.3703 53.7628 15.9994
O 7.61663 2.47501 4.66825 0 0 0 47.1321 87.1361 53.7626 15.9994
O 12.5137 2.47501 15.3102 0 0 0 47.0411 87.1695 53.8523 15.9994
O 11.1882 1.11759 1.12093 0 0 0 -99.093 -2.64705 53.6714 15.9994
O 13.0265 0.64837 8.21557 0 0 0 51.8596 -84.3837 53.7236 15.9994
O 8.12928 0.64837 8.21557 0 0 0 51.9099 -84.3393 53.7934 15.9994
O 7.61663 2.47501 9.98923 0 0 0 47.0501 87.1657 53.8581 15.9994
O 12.5137 2.47501 4.66825 0 0 0 47.1219 87.1372 53.7533 15.9994
O 10.0652 1.76596 4.20021 0 0 0 47.0487 -87.1531 -53.8339 15.9994
O 11.1882 1.11759 6.44191 0 0 0 -99.0959 -2.64209 53.6768 15.9994
O 13.0265 0.64837 13.5366 0 0 0 51.9076 -84.3588 53.7889 15.9994
O 8.12928 0.64837 13.5366 0 0 0 51.9579 -84.3143 53.8587 15.9994
O 10.0652 1.76596 14.8422 0 0 0 47.1249 -87.1229 -53.7332 15.9994
O 7.61663 2.47501 15.3102 0 0 0 47.0513 87.1683 53.8616 15.9994
O 12.5137 2.47501 9.98923 0 0 0 47.0399 87.1669 53.8488 15.9994
O 10.0652 1.76596 9.52119 0 0 0 47.1307 -87.1229 -53.7386 15.9994
O 11.1882 1.11759 11.7629 0 0 0 -99.081 -2.72814 53.7721 15.9994
O 8.73963 3.12338 2.42655 0 0 0 -99.0656 2.78036 -53.8145 15.9994
O 10.578 3.5926 0.65289 0 0 0 51.8737 84.4547 -53.7566 15.9994
O 10.578 4.88934 2.89459 0 0 0 51.8339 -84.4212 53.6928 15.9994
O 5.68076 4.88934 2.89459 0 0 0 51.8843 -84.3764 53.7621 15.9994
O 5.16803 6.71611 4.66825 0 0 0 47.195 87.1052 53.7028 15.9994
O 10.0651 6.71611 15.3102 0 0 0 47.1041 87.1381 53.7927 15.9994
O 8.73956 5.35869 1.12093 0 0 0 -99.0114 -2.76067 53.755 15.9994
O 8.73963 3.12338 7.74753 0 0 0 -99.0632 2.7263 -53.7492 15.9994
O 10.578 3.5926 5.97387 0 0 0 51.872 84.4523 -53.7531 15.9994
O 10.578 4.88934 8.21557 0 0 0 51.8526 -84.3901 53.7234 15.9994
O 5.68076 4.88934 8.21557 0 0 0 51.903 -84.3454 53.7927 15.9994
O 5.16803 6.71611 9.98923 0 0 0 47.1129 87.1348 53.7983 15.9994
O 10.0651 6.71611 4.66825 0 0 0 47.1849 87.1059 53.6938 15.9994
O 7.61663 6.00693 4.20021 0 0 0 47.0494 -87.1576 -53.8293 15.9994
O 8.73956 5.35869 6.44191 0 0 0 -99.0143 -2.75571 53.7604 15.9994
O 8.73963 3.12338 13.0685 0 0 0 -99.0808 2.69456 -53.7186 15.9994
O 10.578 3.5926 11.2949 0 0 0 51.8053 84.5085 -53.6576 15.9994
O 10.578 4.88934 13.5366 0 0 0 51.9006 -84.3652 53.7887 15.9994
O 5.68076 4.88934 13.5366 0 0 0 51.951 -84.3204 53.858 15.9994
O 7.61663 6.00693 14.8422 0 0 0 47.1256 -87.1274 -53.7285 15.9994
O 5.16803 6.71611 15.3102 0 0 0 47.1141 87.1375 53.8018 15.9994
O 10.0651 6.71611 9.98923 0 0 0 47.1028 87.1355 53.7893 15.9994
O 7.61663 6.00693 9.52119 0 0 0 47.1313 -87.1275 -53.7339 15.9994
O 8.73956 5.35869 11.7629 0 0 0 -98.9995 -2.84176 53.8558 15.9994
O 6.29111 7.36435 2.42655 0 0 0 -99.0487 2.79697 -53.839 15.9994
O 8.12936 7.8337 0.65289 0 0 0 51.8991 84.3723 -53.7968 15.9994
O 8.12936 9.13043 2.89459 0 0 0 51.8312 -84.4761 53.6761 15.9994
O 3.23216 9.13043 2.89459 0 0 0 51.8815 -84.4315 53.7457 15.9994
O 3.84251 11.6054 2.42655 0 0 0 -99.0598 2.73199 -53.7694 15.9994
O 2.71951 10.9571 4.66825 0 0 0 47.194 87.1002 53.7012 15.9994
O 7.61656 10.9571 15.3102 0 0 0 47.1031 87.1331 53.7912 15.9994
O 6.29104 9.59966 1.12093 0 0 0 -99.0901 -2.70089 53.7165 15.9994
O 5.68083 12.0747 0.65289 0 0 0 51.9093 84.3612 -53.7919 15.9994
O 6.29111 7.36435 7.74753 0 0 0 -99.0463 2.74292 -53.7737 15.9994
O 8.12936 7.8337 5.97387 0 0 0 51.8974 84.37 -53.7933 15.9994
O 8.12936 9.13043 8.21557 0 0 0 51.8499 -84.445 53.7067 15.9994
O 3.23216 9.13043 8.21557 0 0 0 51.9002 -84.4005 53.7762 15.9994
O 3.84251 11.6054 7.74753 0 0 0 -99.0573 2.67794 -53.7041 15.9994
O 2.71951 10.9571 9.98923 0 0 0 47.112 87.1298 53.7967 15.9994
O 7.61656 10.9571 4.66825 0 0 0 47.184 87.1008 53.6922 15.9994
O 5.16803 10.248 4.20021 0 0 0 47.1311 -87.1958 -53.817 15.9994
O 6.29104 9.59966 6.44191 0 0 0 -99.0931 -2.69593 53.7219 15.9994
O 5.68083 12.0747 5.97387 0 0 0 51.9076 84.3588 -53.7885 15.9994
O 6.29111 7.36435 13.0685 0 0 0 -99.0638 2.71118 -53.7431 15.9994
O 8.12936 7.8337 11.2949 0 0 0 51.8307 84.4262 -53.6978 15.9994
O 8.12936 9.13043 13.5366 0 0 0 51.898 -84.4201 53.772 15.9994
O 3.23216 9.13043 13.5366 0 0 0 51.9482 -84.3755 53.8415 15.9994
O 5.16803 10.248 14.8422 0 0 0 47.2073 -87.1656 -53.7162 15.9994
O 3.84251 11.6054 13.0685 0 0 0 -99.0749 2.6462 -53.6736 15.9994
O 2.71951 10.9571 15.3102 0 0 0 47.1132 87.1325 53.8002 15.9994
O 7.61656 10.9571 9.98923 0 0 0 47.1019 87.1305 53.7877 15.9994
O 5.16803 10.248 9.52119 0 0 0 47.213 -87.1656 -53.7217 15.9994
O 6.29104 9.59966 11.7629 0 0 0 -99.0782 -2.78198 53.8172 15.9994
O 5.68083 12.0747 11.2949 0 0 0 51.8409 84.415 -53.693 15.9994
243
Timestep=100 Time=100.000000 pbc="T T T" Lattice="14.6913 0 0 -7.34565 12.723 0 0 0 15.9631" Potential_energy=135.1901530701843 Temperature=0 Stress="-11966.493886014794 -4.5557276764133394e-08 3.545953580430276e-07 -4.5557276764133394e-08 -11966.49238640562 -0.00016506730384683525 3.545953580430276e-07 -0.00016506730384683525 -42792.04218319211" Properties=species:S:1:pos:R:3:vel:R:3:forces:R:3:mass:R:1
Si 2.20925 1.11113e-07 1.77368 0 0 0 6.70329e-10 -3.04662e-10 -1.26065e-09 28.0855
Si -1.10463 1.91327 3.54736 0 0 0 -1.63226e-09 1.61157e-10 1.66828e-10 28.0855
Si 1.34392 2.32775 -1.65691e-10 0 0 0 -2.34791e-10 -6.20778e-10 -9.27273e-11 28.0855
Si 2.20925 1.11115e-07 7.09471 0 0 0 -1.29072e-11 2.06841e-10 2.99654e-10 28.0855
Si -1.10463 1.91327 8.86839 0 0 0 -2.80789e-10 -8.51275e-11 1.08388e-10 28.0855
Si 1.34392 2.32775 5.32103 0 0 0 3.88015e-10 -1.3759e-09 -2.19745e-09 28.0855
Si 2.20925 1.11108e-07 12.4157 0 0 0 8.62148e-10 -8.46192e-10 2.54704e-10 28.0855
Si -1.10463 1.91327 14.1894 0 0 0 -1.08191e-09 2.51887e-10 1.67225e-09 28.0855
Si 1.34392 2.32775 10.6421 0 0 0 -1.20346e-09 -4.63675e-10 2.00465e-09 28.0855
Si -0.239298 4.24101 1.77368 0 0 0 -9.493e-10 -2.52521e-10 -1.36871e-09 28.0855
Si 11.1381 6.15428 3.54736 0 0 0 -1.73796e-09 2.13318e-09 6.11774e-10 28.0855
Si -1.10463 6.56876 -1.64198e-10 0 0 0 1.16753e-09 -2.85718e-10 -5.15191e-11 28.0855
Si -0.239298 4.24101 7.09471 0 0 0 8.00802e-10 -6.86357e-10 -4.27211e-10 28.0855
Si 11.1381 6.15428 8.86839 0 0 0 -1.04056e-09 1.5913e-09 3.16215e-10 28.0855
Si -1.10463 6.56876 5.32103 0 0 0 1.19155e-09 -1.25776e-09 -1.35001e-09 28.0855
Si -0.239298 4.24101 12.4157 0 0 0 -2.03122e-10 -4.84842e-10 -7.44568e-10 28.0855
Si 11.1381 6.15428 14.1894 0 0 0 -5.53346e-10 1.91292e-09 1.27594e-09 28.0855
Si -1.10463 6.56876 10.6421 0 0 0 -3.67354e-10 2.17134e-10 1.12256e-09 28.0855
Si -2.68785 8.48203 1.77368 0 0 0 4.80598e-10 -5.4269e-10 -2.31472e-10 28.0855
Si -6.00173 10.3953 3.54736 0 0 0 -1.3406e-09 1.20423e-09 1.20008e-09 28.0855
Si -3.55318 10.8098 -1.62075e-10 0 0 0 -4.50819e-10 -1.35152e-09 -6.45384e-11 28.0855
Si -2.68785 8.48203 7.09471 0 0 0 -1.21295e-10 -4.85722e-10 5.44267e-10 28.0855
Si -6.00173 10.3953 8.86839 0 0 0 -2.00895e-09 1.31328e-09 5.6572e-10 28.0855
Si -3.55318 10.8098 5.32103 0 0 0 7.08362e-10 -7.0609e-10 -1.35477e-09 28.0855
Si -2.68785 8.48203 12.4157 0 0 0 -4.05365e-10 -9.15855e-10 2.36017e-10 28.0855
Si -6.00173 10.3953 14.1894 0 0 0 -6.43833e-10 6.94363e-10 3.94266e-10 28.0855
Si -3.55318 10.8098 10.6421 0 0 0 -4.85383e-10 4.59399e-10 1.33168e-09 28.0855
Si 7.10635 1.11107e-07 1.77368 0 0 0 2.04637e-09 1.25335e-09 -9.17627e-10 28.0855
Si 3.79247 1.91327 3.54736 0 0 0 -9.33776e-10 -8.86293e-10 1.11451e-09 28.0855
Si 6.24102 2.32775 -1.68502e-10 0 0 0 -4.89011e-10 6.98081e-10 2.69207e-10 28.0855
Si 7.10635 1.11121e-07 7.09471 0 0 0 2.02353e-09 6.66233e-10 2.96136e-11 28.0855
Si 3.79247 1.91327 8.86839 0 0 0 -1.59258e-09 -1.17145e-10 7.99642e-10 28.0855
Si 6.24102 2.32775 5.32103 0 0 0 7.06856e-10 -3.88488e-10 -9.02852e-10 28.0855
Si 7.10635 1.11106e-07 12.4157 0 0 0 2.83939e-09 3.34836e-10 -2.56378e-10 28.0855
Si 3.79247 1.91327 14.1894 0 0 0 -3.60389e-10 -1.41955e-09 1.74195e-09 28.0855
Si 6.24102 2.32775 10.6421 0 0 0 -1.33746e-09 2.2702e-10 1.57905e-09 28.0855
Si 4.6578 4.24101 1.77368 0 0 0 9.56124e-10 9.481e-10 -1.47785e-09 28.0855
Si 1.34392 6.15428 3.54736 0 0 0 -2.38589e-09 4.07674e-10 9.16516e-10 28.0855
Si 3.79247 6.56876 -1.65635e-10 0 0 0 -3.90585e-11 -5.45772e-10 -6.42491e-11 28.0855
Si 4.6578 4.24101 7.09471 0 0 0 8.5244e-10 4.35459e-10 -5.59196e-10 28.0855
Si 1.34392 6.15428 8.86839 0 0 0 -6.10679e-10 4.98378e-10 6.35424e-10 28.0855
Si 3.79247 6.56876 5.32103 0 0 0 1.55591e-10 -1.01911e-09 -1.48527e-09 28.0855
Si 4.6578 4.24101 12.4157 0 0 0 1.65802e-09 -1.14537e-09 -8.33388e-10 28.0855
Si 1.34392 6.15428 14.1894 0 0 0 -2.35106e-10 8.44181e-10 1.55395e-09 28.0855
Si 3.79247 6.56876 10.6421 0 0 0 -5.41345e-10 -6.1254e-10 1.35746e-09 28.0855
Si 2.20925 8.48203 1.77368 0 0 0 4.82688e-11 1.01521e-10 -1.06086e-09 28.0855
Si -1.10463 10.3953 3.54736 0 0 0 -7.91478e-10 -2.36883e-10 1.35336e-09 28.0855
Si 1.34392 10.8098 -1.64826e-10 0 0 0 -6.72011e-11 6.42071e-10 5.40721e-10 28.0855
Si 2.20925 8.48203 7.09471 0 0 0 6.61274e-10 -1.32603e-10 1.67773e-09 28.0855
Si -1.10463 10.3953 8.86839 0 0 0 -3.54898e-10 -6.26513e-10 3.24292e-10 28.0855
Si 1.34392 10.8098 5.32103 0 0 0 1.78545e-10 1.86977e-10 -1.61472e-09 28.0855
Si 2.20925 8.48203 12.4157 0 0 0 8.91777e-10 -6.07175e-11 6.63803e-10 28.0855
Si -1.10463 10.3953 14.1894 0 0 0 -1.28474e-09 -8.25019e-10 2.45422e-09 28.0855
Si 1.34392 10.8098 10.6421 0 0 0 -1.19384e-09 7.48471e-10 1.32466e-09 28.0855
Si 12.0035 1.11111e-07 1.77368 0 0 0 1.11149e-09 5.35331e-10 -3.12259e-10 28.0855
Si 8.68957 1.91327 3.54736 0 0 0 -1.07763e-09 -1.26017e-09 -1.87184e-10 28.0855
Si 11.1381 2.32775 -1.69172e-10 0 0 0 -5.68937e-10 -1.27236e-09 -1.24526e-10 28.0855
Si 12.0035 1.11113e-07 7.09471 0 0 0 2.33654e-09 -3.39575e-10 -5.05109e-10 28.0855
Si 8.68957 1.91327 8.86839 0 0 0 -8.50264e-10 -7.98211e-10 -5.13001e-10 28.0855
Si 11.1381 2.32775 5.32103 0 0 0 1.02807e-09 -4.03347e-10 -1.51192e-09 28.0855
Si 12.0035 1.11104e-07 12.4157 0 0 0 1.89325e-09 1.84807e-10 -1.13024e-09 28.0855
Si 8.68957 1.91327 14.1894 0 0 0 -1.20456e-09 -3.00271e-10 2.79482e-10 28.0855
Si 11.1381 2.32775 10.6421 0 0 0 -5.78428e-10 4.68512e-11 1.16824e-09 28.0855
Si 9.5549 4.24101 1.77368 0 0 0 -8.67462e-11 -9.66938e-10 -1.97336e-09 28.0855
Si 6.24102 6.15428 3.54736 0 0 0 -9.00719e-10 5.87752e-10 -2.83104e-10 28.0855
Si 8.68957 6.56876 -1.66603e-10 0 0 0 7.81161e-10 1.32248e-10 -6.8485e-10 28.0855
Si 9.5549 4.24101 7.09471 0 0 0 -3.76786e-10 -7.00781e-11 1.36063e-10 28.0855
Si 6.24102 6.15428 8.86839 0 0 0 -8.51339e-10 3.60289e-10 -1.29389e-09 28.0855
Si 8.68957 6.56876 5.32103 0 0 0 1.4371e-09 -7.99919e-10 -1.47999e-09 28.0855
Si 9.5549 4.24101 12.4157 0 0 0 1.82464e-10 -2.44623e-10 -8.92452e-10 28.0855
Si 6.24102 6.15428 14.1894 0 0 0 -3.48519e-10 -5.81046e-11 1.44452e-09 28.0855
Si 8.68957 6.56876 10.6421 0 0 0 2.69831e-10 1.05901e-10 1.46816e-09 28.0855
Si 7.10635 8.48203 1.77368 0 0 0 8.48743e-11 4.45987e-10 -5.5925e-11 28.0855
Si 3.79247 10.3953 3.54736 0 0 0 -1.36598e-09 -3.16512e-11 5.41011e-10 28.0855
Si 6.24102 10.8098 -1.66422e-10 0 0 0 1.11543e-09 1.60255e-09 1.25566e-10 28.0855
Si 7.10635 8.48203 7.09471 0 0 0 5.89271e-10 -5.40056e-10 2.04773e-10 28.0855
Si 3.79247 10.3953 8.86839 0 0 0 -1.28057e-09 -2.91702e-10 1.57256e-10 28.0855
Si 6.24102 10.8098 5.32103 0 0 0 1.72702e-09 3.1938e-10 2.13566e-10 28.0855
Si 7.10635 8.48203 12.4157 0 0 0 8.69222e-10 -4.88452e-10 -1.91763e-10 28.0855
Si 3.79247 10.3953 14.1894 0 0 0 -1.73158e-10 -2.40295e-10 4.11564e-10 28.0855
Si 6.24102 10.8098 10.6421 0 0 0 -2.71053e-10 1.4725e-09 3.35856e-11 28.0855
O 1.1953 1.30495 1.35901 0 0 0 -2.27422e-10 -4.38434e-10 1.43646e-09 15.9994
O 0.53247 1.68763 3.96203 0 0 0 7.68181e-10 -2.05059e-10 3.83679e-10 15.9994
O 1.1953 1.30495 6.68004 0 0 0 1.98453e-10 -4.69301e-10 8.43089e-10 15.9994
O 0.53247 1.68763 14.6041 0 0 0 1.19822e-10 -5.02447e-10 -1.36698e-09 15.9994
O 0.53247 1.68763 9.28306 0 0 0 -1.32386e-10 -1.44581e-10 -7.70364e-10 15.9994
O 1.1953 1.30495 12.0011 0 0 0 -3.01003e-10 2.82241e-10 -3.13404e-10 15.9994
O -1.25325 2.93607 2.18835 0 0 0 -2.45876e-11 3.95519e-10 -7.73968e-10 15.9994
O 0.720784 3.85833 0.414672 0 0 0 -1.45196e-10 2.13867e-10 8.95335e-10 15.9994
O -1.25325 5.54596 1.35901 0 0 0 5.47328e-10 -8.84534e-10 8.59555e-10 15.9994
O -1.25325 2.93607 7.50938 0 0 0 -4.86566e-12 -6.30191e-10 -2.81546e-10 15.9994
O 0.720784 3.85833 5.73571 0 0 0 7.04572e-10 6.20671e-10 4.14859e-10 15.9994
O -1.91608 5.92864 3.96203 0 0 0 1.41348e-09 -1.09379e-10 -2.05215e-10 15.9994
O -1.25325 5.54596 6.68004 0 0 0 -9.61888e-10 3.73473e-10 1.08702e-09 15.9994
O -1.25325 2.93607 12.8304 0 0 0 -1.52371e-10 3.58001e-10 -6.70759e-10 15.9994
O 0.720784 3.85833 11.0567 0 0 0 7.16821e-10 -3.69456e-10 2.4766e-11 15.9994
O -1.91608 5.92864 14.6041 0 0 0 1.3554e-10 -4.25331e-10 -1.23874e-09 15.9994
O -1.91608 5.92864 9.28306 0 0 0 8.07088e-10 -4.38929e-10 -1.05216e-09 15.9994
O -1.25325 5.54596 12.0011 0 0 0 -6.2149e-10 5.30179e-10 3.04113e-10 15.9994
O -3.7018 7.17708 2.18835 0 0 0 -6.67749e-10 -6.6432e-10 5.38506e-10 15.9994
O -1.72777 8.09934 0.414672 0 0 0 -5.19626e-10 1.54242e-10 2.29297e-10 15.9994
O -6.15035 11.4181 2.18835 0 0 0 -5.41352e-10 3.39138e-10 -9.00395e-10 15.9994
O -3.7018 9.78697 1.35901 0 0 0 3.13803e-10 2.3454e-10 5.95394e-10 15.9994
O -4.17632 12.3404 0.414672 0 0 0 -5.31416e-10 3.21641e-10 1.35046e-10 15.9994
O -3.7018 7.17708 7.50938 0 0 0 -1.34305e-10 -1.16316e-09 -5.84986e-10 15.9994
O -1.72777 8.09934 5.73571 0 0 0 1.02131e-10 7.29062e-10 1.07885e-10 15.9994
O -6.15035 11.4181 7.50938 0 0 0 -7.40521e-10 2.50877e-10 4.09415e-10 15.9994
O -4.36463 10.1697 3.96203 0 0 0 1.46299e-09 -4.46724e-10 -5.84217e-10 15.9994
O -3.7018 9.78697 6.68004 0 0 0 3.46185e-10 -5.69537e-10 1.0235e-09 15.9994
O -4.17632 12.3404 5.73571 0 0 0 -6.85807e-10 2.31084e-10 -1.2918e-10 15.9994
O -3.7018 7.17708 12.8304 0 0 0 2.28597e-10 3.20783e-10 -9.56353e-10 15.9994
O -1.72777 8.09934 11.0567 0 0 0 -6.12763e-11 -2.14631e-10 -2.6533e-10 15.9994
O -4.36463 10.1697 14.6041 0 0 0 4.81041e-10 6.22718e-11 -1.10588e-10 15.9994
O -6.15035 11.4181 12.8304 0 0 0 -4.0115e-10 -1.66001e-10 -1.1699e-09 15.9994
O -4.36463 10.1697 9.28306 0 0 0 5.46535e-10 -5.60872e-10 -1.29103e-10 15.9994
O -3.7018 9.78697 12.0011 0 0 0 3.36043e-10 -1.59234e-11 2.34049e-10 15.9994
O -4.17632 12.3404 11.0567 0 0 0 -2.51196e-11 4.52654e-10 8.49248e-11 15.9994
O 3.16933 0.382684 3.13268 0 0 0 5.21055e-10 4.57509e-10 4.68789e-10 15.9994
O 2.98102 2.55338 4.90636 0 0 0 -8.19429e-10 4.06535e-10 -1.51662e-10 15.9994
O 6.0924 1.30495 1.35901 0 0 0 -2.28209e-10 -4.14811e-10 1.09816e-09 15.9994
O 3.16933 0.382684 8.45372 0 0 0 -4.1278e-10 8.48078e-11 8.15837e-11 15.9994
O 2.98102 2.55338 10.2274 0 0 0 4.04996e-11 8.9624e-10 -5.3892e-10 15.9994
O 5.42957 1.68763 3.96203 0 0 0 1.13553e-09 -3.66117e-10 -4.28913e-10 15.9994
O 6.0924 1.30495 6.68004 0 0 0 -5.79774e-10 1.68726e-10 9.08545e-10 15.9994
O 3.16933 0.382684 13.7747 0 0 0 4.93511e-10 5.9396e-10 5.70393e-10 15.9994
O 5.42957 1.68763 14.6041 0 0 0 -6.78476e-10 -6.66625e-11 -9.93382e-10 15.9994
O 2.98102 2.55338 15.5484 0 0 0 1.15337e-10 -4.57475e-11 -1.02292e-09 15.9994
O 5.42957 1.68763 9.28306 0 0 0 1.16245e-09 -7.42824e-10 -1.22081e-09 15.9994
O 6.0924 1.30495 12.0011 0 0 0 -6.0279e-10 8.63827e-10 6.05316e-11 15.9994
O 3.64385 2.93607 2.18835 0 0 0 -9.37986e-10 7.00803e-10 1.08522e-10 15.9994
O 5.61788 3.85833 0.414672 0 0 0 -7.58259e-10 -9.54593e-11 3.15612e-10 15.9994
O 0.720784 4.6237 3.13268 0 0 0 -5.26673e-10 4.10205e-10 2.65241e-10 15.9994
O 0.53247 6.79439 4.90636 0 0 0 8.56002e-11 -1.61033e-10 -9.20614e-12 15.9994
O 3.64385 5.54596 1.35901 0 0 0 -4.68806e-10 4.6029e-10 2.9112e-10 15.9994
O 3.64385 2.93607 7.50938 0 0 0 2.66877e-10 -1.93786e-10 -4.44525e-10 15.9994
O 5.61788 3.85833 5.73571 0 0 0 4.61675e-10 -7.3841e-11 4.24223e-10 15.9994
O 0.720784 4.6237 8.45372 0 0 0 -2.3879e-10 4.04759e-10 2.507e-10 15.9994
O 0.53247 6.79439 10.2274 0 0 0 -5.06152e-10 2.65584e-10 -4.32863e-10 15.9994
O 2.98102 5.92864 3.96203 0 0 0 2.16183e-09 -3.72591e-13 -7.62121e-10 15.9994
O 3.64385 5.54596 6.68004 0 0 0 4.53684e-10 -3.98405e-10 1.14197e-09 15.9994
O 3.64385 2.93607 12.8304 0 0 0 4.20156e-10 -4.48642e-10 -4.52444e-10 15.9994
O 5.61788 3.85833 11.0567 0 0 0 -2.03655e-10 2.25744e-10 2.28764e-13 15.9994
O 0.720784 4.6237 13.7747 0 0 0 1.14815e-09 -1.86705e-10 -2.97834e-10 15.9994
O 2.98102 5.92864 14.6041 0 0 0 1.09295e-09 -1.5093e-10 -2.20531e-10 15.9994
O 0.53247 6.79439 15.5484 0 0 0 8.82018e-11 -8.00223e-10 -3.21803e-10 15.9994
O 2.98102 5.92864 9.28306 0 0 0 -1.1106e-10 2.24708e-10 -1.06265e-09 15.9994
O 3.64385 5.54596 12.0011 0 0 0 -8.74485e-10 1.46665e-09 8.2861e-10 15.9994
O 1.1953 7.17708 2.18835 0 0 0 -2.16247e-11 -4.09572e-10 4.03644e-10 15.9994
O 3.16933 8.09934 0.414672 0 0 0 -3.97274e-10 -1.85601e-10 -6.46502e-10 15.9994
O -1.72777 8.86471 3.13268 0 0 0 5.06708e-10 1.17581e-09 7.81502e-10 15.9994
O -1.25325 11.4181 2.18835 0 0 0 -1.12638e-09 1.5496e-10 -2.81669e-10 15.9994
O -1.91608 11.0354 4.90636 0 0 0 -1.86703e-12 1.71131e-10 2.90338e-10 15.9994
O 1.1953 9.78697 1.35901 0 0 0 -1.44522e-10 -5.81781e-10 6.81077e-10 15.9994
O 0.720784 12.3404 0.414672 0 0 0 -1.26574e-09 6.25816e-10 5.53528e-10 15.9994
O 1.1953 7.17708 7.50938 0 0 0 1.4814e-10 -6.1971e-10 -1.01077e-09 15.9994
O 3.16933 8.09934 5.73571 0 0 0 -4.08682e-10 9.12936e-12 -2.71013e-10 15.9994
O -1.72777 8.86471 8.45372 0 0 0 5.77361e-10 1.09431e-09 2.35229e-10 15.9994
O -1.25325 11.4181 7.50938 0 0 0 -3.68193e-10 -1.1498e-09 -4.07291e-10 15.9994
O -1.91608 11.0354 10.2274 0 0 0 2.03178e-10 1.04543e-09 -8.47333e-10 15.9994
O 0.53247 10.1697 3.96203 0 0 0 1.13124e-09 2.4633e-10 1.05655e-10 15.9994
O 1.1953 9.78697 6.68004 0 0 0 1.38165e-09 -7.53188e-10 6.47606e-10 15.9994
O 0.720784 12.3404 5.73571 0 0 0 -1.1353e-09 1.11189e-10 -2.22489e-11 15.9994
O 1.1953 7.17708 12.8304 0 0 0 4.04134e-11 -3.4877e-11 -3.91034e-10 15.9994
O 3.16933 8.09934 11.0567 0 0 0 -2.14809e-10 3.50053e-10 3.0578e-11 15.9994
O -1.72777 8.86471 13.7747 0 0 0 2.68457e-10 7.80596e-10 -6.13833e-10 15.9994
O 0.53247 10.1697 14.6041 0 0 0 -4.33667e-10 -9.79903e-10 -1.13901e-09 15.9994
O -1.25325 11.4181 12.8304 0 0 0 -7.55445e-10 9.65628e-11 -1.47173e-09 15.9994