365
Timestep=0 Time=0.000000 pbc="T T T" Lattice="15.0709 0 0 -7.73177 13.8463 0 0.246278 -0.138154 18.3222" Potential_energy=1343.3367828308146 Temperature=0 Stress="102325.03217105246 2088.2599639034884 3522.1584857245666 2088.2599639034884 93241.71623280238 -424.99858799158307 3522.1584857245666 -424.99858799158307 106194.01950719886" Properties=species:S:1:pos:R:3:vel:R:3:forces:R:3:mass:R:1
Si 13.8473 1.28682 5.05104 0 0 0 -25.2854 72.3424 -18.1236 28.0855
Si 1.05049 3.2189 0.40181 0 0 0 46.4142 13.1924 17.0356 28.0855
Si 2.91948 0.44248 8.78312 0 0 0 -30.5732 -6.91695 -9.6717 28.0855
Si 14.3101 1.2913 10.9104 0 0 0 -3.19715 11.4532 36.7201 28.0855
Si 1.27069 2.33838 6.7255 0 0 0 -45.3953 1.47087 2.94497 28.0855
Si 13.4591 2.7651 17.504 0 0 0 -11.0692 -19.8711 -80.6452 28.0855
Si 0.78003 2.77872 13.1198 0 0 0 5.32434 31.9502 15.1007 28.0855
Si -1.66944 6.51626 17.7899 0 0 0 -48.2622 -47.7506 -13.6323 28.0855
Si 0.01947 3.77996 9.14392 0 0 0 -40.9359 24.1597 19.8638 28.0855
Si -3.69599 7.58949 9.92426 0 0 0 43.3937 -68.6221 60.8939 28.0855
Si -1.24965 7.57579 5.75675 0 0 0 3.82914 -31.5703 9.16571 28.0855
Si -0.84866 5.17837 13.7476 0 0 0 -17.5267 -15.1977 35.3618 28.0855
Si 10.9817 5.7545 16.0396 0 0 0 -75.4868 38.2807 3.71774 28.0855
Si -1.14415 7.45811 11.7927 0 0 0 12.2389 -50.9757 45.4168 28.0855
Si 9.00864 10.4948 3.19178 0 0 0 13.7209 -41.5381 -49.6817 28.0855
Si -3.24353 11.8132 16.9822 0 0 0 43.6423 3.28282 49.1382 28.0855
Si -2.68192 9.51091 7.64097 0 0 0 74.3752 1.67379 24.2931 28.0855
Si -5.81474 11.9459 10.4525 0 0 0 -11.6706 3.86009 -33.0374 28.0855
Si -3.72614 12.3391 6.69043 0 0 0 -18.6787 -26.7901 -17.3542 28.0855
Si -1.42653 9.90273 13.4914 0 0 0 -11.9501 4.68528 38.1038 28.0855
Si -5.54151 11.2149 14.8269 0 0 0 -16.1018 -8.40346 -37.9717 28.0855
Si -3.18729 12.1331 12.3459 0 0 0 24.1678 71.0287 62.4654 28.0855
Si 7.03584 0.73798 2.68141 0 0 0 29.637 25.82 -56.1808 28.0855
Si 2.42981 2.84121 3.96556 0 0 0 -57.9899 -29.1178 -41.2435 28.0855
Si 5.59404 2.26531 0.56824 0 0 0 0.913623 2.62023 -25.5291 28.0855
Si 8.11789 -0.01656 7.96102 0 0 0 49.6156 -37.0388 31.6422 28.0855
Si 4.18627 2.87083 10.3196 0 0 0 -38.9585 58.3785 33.4357 28.0855
Si 6.7884 2.70279 6.81852 0 0 0 -28.5026 5.8563 -26.5675 28.0855
Si 3.63393 2.48001 16.8145 0 0 0 18.64 -10.7577 -20.0671 28.0855
Si 6.5112 3.11848 12.4031 0 0 0 18.2858 52.773 28.1849 28.0855
Si 4.7773 4.56161 2.57128 0 0 0 -79.481 36.7361 -46.4602 28.0855
Si 1.30256 8.0922 4.21877 0 0 0 24.316 -39.6715 -17.7104 28.0855
Si 5.52368 4.85256 8.55587 0 0 0 -49.6619 -30.4702 8.89685 28.0855
Si 1.43079 6.04547 10.6571 0 0 0 24.6139 32.474 -24.6733 28.0855
Si 4.03743 6.8659 6.50899 0 0 0 -38.0587 -89.748 -9.12031 28.0855
Si 4.96442 4.31698 14.6912 0 0 0 -3.88805 24.8175 -31.445 28.0855
Si 0.93955 6.50627 16.0452 0 0 0 11.5435 -78.3279 -4.12786 28.0855
Si 3.61036 6.37509 12.9393 0 0 0 -0.616058 8.68414 -23.5768 28.0855
Si 0.74908 8.23992 1.3144 0 0 0 21.6006 -13.3846 26.177 28.0855
Si -1.38197 12.0517 4.61843 0 0 0 -41.4415 -18.6381 -45.7363 28.0855
Si 0.93912 10.6431 18.0354 0 0 0 4.77258 55.2106 -5.57439 28.0855
Si 2.73518 9.56345 7.6682 0 0 0 -88.5996 3.15915 43.1591 28.0855
Si -1.06041 11.3563 9.23663 0 0 0 8.79448 -10.934 42.6517 28.0855
Si 1.49388 11.9397 5.81605 0 0 0 -29.7227 38.1665 2.10659 28.0855
Si 2.82239 8.74565 14.9126 0 0 0 -42.5788 -1.7845 -23.3933 28.0855
Si -0.41201 11.8102 15.487 0 0 0 8.41752 24.2855 44.8354 28.0855
Si 6.11022 13.7566 2.23371 0 0 0 -15.4082 59.5697 -62.1388 28.0855
Si 8.34219 2.93442 4.23655 0 0 0 16.9333 -73.2647 -32.3968 28.0855
Si 10.4936 2.47802 18.241 0 0 0 25.5498 -6.54721 -61.5702 28.0855
Si 11.8168 1.36091 12.7072 0 0 0 0.245189 -26.4357 40.3046 28.0855
Si 9.19017 4.67677 1.93997 0 0 0 39.8319 -5.47634 -38.5691 28.0855
Si 6.32092 6.46332 4.48591 0 0 0 -26.8706 58.3341 -28.8147 28.0855
Si 8.72469 6.29545 18.0016 0 0 0 11.8806 32.1994 -14.9075 28.0855
Si 11.295 4.45938 9.81253 0 0 0 -3.5788 -10.3647 37.222 28.0855
Si 5.88352 6.93997 10.7357 0 0 0 -68.7836 9.97727 -39.1218 28.0855
Si 8.82986 6.48401 6.31248 0 0 0 6.29133 32.2005 -10.2403 28.0855
Si 10.1734 3.44087 14.1544 0 0 0 -72.0601 -3.65122 -1.20744 28.0855
Si 6.43598 6.72288 15.8099 0 0 0 -44.9997 13.4512 43.6374 28.0855
Si 8.84557 7.48218 11.8188 0 0 0 -8.16834 -97.5923 49.1685 28.0855
Si 7.70497 8.92501 0.97335 0 0 0 -38.844 -1.5962 -1.69183 28.0855
Si 6.31877 11.5133 0.21063 0 0 0 -18.1849 45.0346 -27.4096 28.0855
Si 4.25743 11.0325 10.1075 0 0 0 -19.9432 38.4878 28.5668 28.0855
Si 6.44035 10.8382 5.11246 0 0 0 -22.4871 -21.1891 20.4926 28.0855
Si 7.63732 9.14878 14.023 0 0 0 34.3758 14.5201 -26.0944 28.0855
Si 3.89092 10.6165 17.0493 0 0 0 -33.5707 57.3856 -67.5725 28.0855
Si 6.57124 11.1701 11.908 0 0 0 -6.01613 19.4393 -13.0992 28.0855
C -1.5941 2.95293 4.28831 0 0 0 -3.44979 5.59054 2.83734 12.0107
C 12.5615 0.74579 6.27062 0 0 0 -8.95333 4.35797 5.58125 12.0107
C 0.43455 2.43638 14.8981 0 0 0 11.1223 -1.26495 8.58676 12.0107
C -2.71728 8.11644 0.27624 0 0 0 -1.96628 10.4647 1.65144 12.0107
C -2.02455 6.7625 4.28453 0 0 0 -1.59114 -6.84806 -3.97621 12.0107
C -0.89429 6.40963 7.14121 0 0 0 -0.930507 -7.22584 2.47761 12.0107
C -5.4547 11.8166 2.0205 0 0 0 5.44506 -0.577645 -4.06912 12.0107
C 8.95442 10.6242 9.22307 0 0 0 2.6888 -9.36231 -2.29568 12.0107
C -5.34088 12.4954 5.83268 0 0 0 -10.4034 -1.23045 -6.46511 12.0107
C 10.2643 7.01903 14.9359 0 0 0 -4.18218 7.63126 -5.73104 12.0107
C -2.14878 9.02715 14.9505 0 0 0 -4.7788 -6.80771 6.65326 12.0107
C 7.12659 2.30853 17.5719 0 0 0 5.20465 0.803974 -3.46832 12.0107
C 9.06993 0.44614 9.45937 0 0 0 -2.5964 3.77644 -1.06042 12.0107
C 2.76884 1.08497 3.49919 0 0 0 1.8931 -5.38111 1.16575 12.0107
C 5.15016 2.36984 6.08021 0 0 0 -7.47245 -1.79266 -9.61557 12.0107
C 3.58518 1.12603 15.5689 0 0 0 3.13113 -10.3283 -5.78325 12.0107
C 1.47108 6.26962 3.86129 0 0 0 5.58094 -8.62721 3.97421 12.0107
C 2.39645 7.64242 0.70579 0 0 0 8.76037 0.528256 -0.749206 12.0107
C -2.05742 10.6986 3.56159 0 0 0 -5.07617 -6.48328 -3.37926 12.0107
C 0.22939 12.2437 0.70954 0 0 0 -0.501212 0.634522 2.71241 12.0107
C 2.43866 6.83178 9.36657 0 0 0 0.621403 -4.84186 0.00177402 12.0107
C 0.34552 11.0451 10.3801 0 0 0 -10.9702 1.72757 -7.0777 12.0107
C -1.9629 13.4598 11.902 0 0 0 0.325185 5.33924 9.13938 12.0107
C 2.38236 12.2936 4.23585 0 0 0 -1.34331 0.862875 -7.17015 12.0107
C 0.41752 13.4539 15.3957 0 0 0 7.58462 8.62983 4.05093 12.0107
C 12.1468 0.47018 1.75869 0 0 0 -2.12857 -2.30044 -1.40478 12.0107
C 9.91325 1.97687 4.30485 0 0 0 6.06877 -3.52473 5.19757 12.0107
C 10.3088 0.32012 12.4448 0 0 0 -3.66942 -8.60463 6.21681 12.0107
C 12.8047 0.58192 14.0619 0 0 0 -5.19956 -5.87501 4.50425 12.0107
C 10.7656 5.58594 2.20099 0 0 0 13.2998 2.13558 3.78448 12.0107
C 9.51106 7.8916 5.3105 0 0 0 3.83332 2.84003 3.25968 12.0107
C 9.55787 3.92609 10.2148 0 0 0 -3.13677 -3.68084 5.3331 12.0107
C 10.1399 5.14804 6.34885 0 0 0 3.36689 6.32226 0.999914 12.0107
C 8.41193 7.03097 8.04153 0 0 0 5.09358 7.42624 -0.85949 12.0107
C 6.05541 8.10463 1.15803 0 0 0 -13.7032 2.42231 4.61995 12.0107
C -6.39669 12.8041 14.3746 0 0 0 -0.137266 1.55528 -7.88786 12.0107
C 7.08542 12.6579 17.317 0 0 0 5.14511 4.59546 -6.11426 12.0107
C 4.32165 12.7162 9.32709 0 0 0 3.54331 5.50611 1.60656 12.0107
C 3.31984 10.6898 11.6865 0 0 0 -5.21647 -5.57178 2.91332 12.0107
C 4.97814 10.2294 4.14206 0 0 0 0.0722991 -8.22476 5.16723 12.0107
C 6.74074 9.71107 6.56643 0 0 0 -8.49679 0.332299 5.45752 12.0107
C 3.8719 12.1633 16.0511 0 0 0 -2.96113 8.04855 0.111567 12.0107
H 1.55758 2.16531 1.3004 0 0 0 -3.58958 6.21437 -9.22256 1.00794
H 1.17115 4.58768 0.96453 0 0 0 1.30408 -6.12816 -0.799428 1.00794
H 6.72772 13.764 10.4369 0 0 0 -0.632221 2.81297 -0.369603 1.00794
H -1.49833 3.8495 16.5169 0 0 0 0.579956 -7.90515 11.7327 1.00794
H -1.78931 5.48386 0.37606 0 0 0 1.53643 11.8177 -1.54206 1.00794
H -1.16907 4.62672 9.05266 0 0 0 13.1406 -5.33129 6.13319 1.00794
H 13.3616 1.42821 16.8614 0 0 0 -3.59781 30.1644 4.11841 1.00794
H -1.84522 4.45161 14.5261 0 0 0 6.18455 0.00301208 -8.92345 1.00794
H -2.91871 10.7183 17.9275 0 0 0 -8.90636 27.3019 -4.39861 1.00794
H -3.49299 13.0763 17.7147 0 0 0 1.88137 -5.84745 0.754646 1.00794
H -4.91642 10.0857 4.02971 0 0 0 -2.85882 6.14844 -3.63428 1.00794
H -4.74001 10.5773 13.7645 0 0 0 -14.7434 -6.97021 12.5828 1.00794
H -3.72021 12.5787 13.6605 0 0 0 28.042 12.9658 -20.4161 1.00794
H 1.20847 3.37375 3.31395 0 0 0 23.4285 -5.36704 1.19222 1.00794
H 3.20627 3.3882 11.275 0 0 0 16.8634 5.91474 -27.2313 1.00794
H 2.22212 2.96713 12.8692 0 0 0 -19.8956 -5.26215 30.3493 1.00794
H 7.11845 4.45982 12.2621 0 0 0 -1.93112 -4.5263 0.435841 1.00794
H 7.53708 2.06039 12.5864 0 0 0 -1.84414 6.37424 -2.03668 1.00794
H 4.09118 5.62275 1.81219 0 0 0 22.4275 -14.674 11.3262 1.00794
H 2.54646 8.69398 4.72639 0 0 0 -7.36013 -7.24362 -6.90799 1.00794
H 2.80459 6.09954 6.27214 0 0 0 6.56916 1.05031 2.79929 1.00794
H 1.93503 5.54559 16.5486 0 0 0 -1.50043 1.62528 0.102293 1.00794
H -0.259 7.15781 1.44817 0 0 0 20.6001 5.8878 12.6855 1.00794
H 8.357 0.57824 2.05434 0 0 0 -1.93631 8.30198 3.95003 1.00794
H 1.44996 9.0577 8.16799 0 0 0 -0.396159 2.41532 -1.06457 1.00794
H -2.3619 11.622 9.87574 0 0 0 12.682 -6.59947 -14.3218 1.00794
H 2.2169 9.87246 14.187 0 0 0 -1.00522 -1.33277 1.2511 1.00794
H -0.12383 0.60855 1.52875 0 0 0 -10.5712 -1.28717 2.28693 1.00794
H 9.90442 2.93811 16.9771 0 0 0 -1.73947 -3.13254 12.4477 1.00794
H 10.3765 0.994246 18.3042 0 0 0 -3.17006 9.62334 -5.22969 1.00794
H 12.2045 4.29014 10.9728 0 0 0 -4.09743 -1.11134 -3.61643 1.00794
H 11.7976 3.66727 8.65276 0 0 0 -4.87429 0.806125 6.85215 1.00794
H 5.22013 7.98522 9.94817 0 0 0 1.24582 -2.13139 -2.03576 1.00794
H 9.45741 2.30237 14.7921 0 0 0 1.60841 4.77598 -5.44219 1.00794
H 5.22345 7.13712 16.5302 0 0 0 -0.709442 -3.86247 -3.77213 1.00794
H 9.22311 4.32504 13.4377 0 0 0 5.20018 -9.53033 7.8638 1.00794
H 9.15989 6.14545 12.3498 0 0 0 -1.65882 15.341 1.26907 1.00794
H 6.875 7.5474 3.66304 0 0 0 2.92362 -5.10234 4.66298 1.00794
H 6.20128 12.1902 5.67916 0 0 0 0.463653 -14.3089 -5.10846 1.00794
H 5.78933 12.284 12.4757 0 0 0 10.5077 -9.12626 -16.2789 1.00794
H -0.74909 3.31327 3.68569 0 0 0 -12.5554 -2.1621 0.569585 1.00794
H -1.78167 3.69119 5.08301 0 0 0 -0.232925 1.94985 6.1092 1.00794
H 12.5912 2.92713 3.64076 0 0 0 -1.49103 -3.27027 -3.17487 1.00794
H 11.607 0.46546 5.81476 0 0 0 4.98316 -2.21477 -4.25713 1.00794
H 12.3678 1.56608 6.98 0 0 0 0.266952 4.61565 2.93438 1.00794
H 5.19996 13.7337 6.84258 0 0 0 2.14443 -0.122795 -0.995239 1.00794
H 0.81034 1.47203 15.2498 0 0 0 -3.97333 23.2383 -2.91096 1.00794
H -0.6463 2.46291 15.0626 0 0 0 6.88105 4.57498 -13.6805 1.00794
H 0.89472 3.22172 15.5082 0 0 0 -6.70319 7.68182 -12.2106 1.00794
H -2.19556 8.89564 18.0669 0 0 0 9.8875 -17.0997 -4.28944 1.00794
H -2.4115 8.23763 1.32244 0 0 0 3.07688 -2.81154 5.10235 1.00794
H -3.81146 8.01771 0.24574 0 0 0 -3.35888 -1.81072 -0.108541 1.00794
H -1.40598 5.95843 3.86638 0 0 0 5.78235 -3.63158 1.84815 1.00794
H -2.22868 7.48988 3.48726 0 0 0 1.8364 6.93202 -0.460157 1.00794
H -2.9838 6.32658 4.58914 0 0 0 -1.92616 0.68025 6.6091 1.00794
H -0.11992 5.68077 6.86842 0 0 0 3.75977 5.47758 -10.7429 1.00794
H -1.80165 5.85266 7.41072 0 0 0 -7.47131 2.59664 -6.67807 1.00794
H -0.56045 6.95478 8.03711 0 0 0 1.7012 6.33243 1.86575 1.00794
H -4.96877 11.314 1.17088 0 0 0 0.729742 -2.32283 -1.39821 1.00794
H -4.70203 12.452 2.50506 0 0 0 4.02529 -1.09871 3.18296 1.00794
H -6.24165 12.4692 1.6267 0 0 0 -6.93129 0.332192 1.50896 1.00794
H -5.39882 10.5934 8.40096 0 0 0 -15.8165 2.90836 11.8928 1.00794
H 7.95251 10.8322 8.82284 0 0 0 -2.15634 4.55574 3.85534 1.00794
H 8.92042 9.63777 9.69324 0 0 0 -4.66298 6.41881 2.87416 1.00794
H -5.23203 12.2926 4.76545 0 0 0 18.402 23.4868 18.6669 1.00794
H -5.7855 13.4891 5.93507 0 0 0 3.939 0.50363 -0.0847912 1.00794
H -6.0508 11.7694 6.24508 0 0 0 0.379723 -2.87022 7.68979 1.00794
H 9.27313 6.67583 14.6208 0 0 0 -3.07891 -7.39643 4.60893 1.00794
H 10.8697 7.17027 14.0356 0 0 0 5.10804 -5.39975 -5.46028 1.00794
H 10.1462 7.98357 15.4448 0 0 0 1.76912 3.01641 8.66314 1.00794
H -1.42929 9.06203 15.7802 0 0 0 2.23839 -2.74248 3.07618 1.00794
H -2.31792 7.97155 14.7216 0 0 0 6.4959 -0.680982 -4.12452 1.00794
H -3.09648 9.46211 15.2857 0 0 0 -1.74609 2.61384 -3.70757 1.00794
H 6.76833 1.90607 16.6156 0 0 0 -6.66981 -1.39026 -4.2841 1.00794
H 8.03703 1.7617 17.8422 0 0 0 -21.3762 -9.01403 4.31526 1.00794
H 7.38585 3.36316 17.4179 0 0 0 -1.49544 8.2104 0.948476 1.00794
H 9.88491 1.13837 9.21164 0 0 0 4.7067 3.3509 -6.81948 1.00794
H 1.76524 13.4277 9.97075 0 0 0 -3.01769 -10.2905 -5.70019 1.00794
H 8.37726 0.95341 10.1457 0 0 0 -10.2145 2.19821 -4.01121 1.00794
H 3.08582 1.029 2.44927 0 0 0 3.57111 0.777736 -4.99001 1.00794
H 1.86737 0.47136 3.62169 0 0 0 -8.18556 0.789275 1.08242 1.00794
H 3.57013 0.65853 4.11688 0 0 0 3.80959 0.58173 3.07295 1.00794
H 5.19839 1.4658 5.46259 0 0 0 3.69854 -4.40408 -2.53975 1.00794
H 4.82978 3.20846 5.45502 0 0 0 10.8806 7.49691 6.52311 1.00794
H 4.40032 2.21725 6.86288 0 0 0 1.28481 -0.423199 5.80043 1.00794
H 3.03109 0.26074 15.9444 0 0 0 7.63958 8.24821 11.9714 1.00794
H 4.61638 0.80067 15.3682 0 0 0 6.1625 -0.866256 -1.06461 1.00794
H 3.14885 1.4424 14.614 0 0 0 -1.9762 6.3204 -3.51139 1.00794
H 1.32384 5.66465 4.7651 0 0 0 -6.76271 0.161045 4.42941 1.00794
H 2.47863 6.05132 3.487 0 0 0 1.45664 7.56304 -0.326076 1.00794
H 0.75293 5.92704 3.10412 0 0 0 -3.87005 -1.73055 -0.627556 1.00794
H 2.72841 7.51456 17.9364 0 0 0 1.16554 3.41167 0.527163 1.00794
H 2.58967 6.62088 1.0569 0 0 0 -20.9867 7.12002 -7.03602 1.00794
H 3.18318 8.29509 1.10831 0 0 0 1.64445 4.64578 2.6869 1.00794
H -1.22621 10.2256 3.0199 0 0 0 2.28993 -0.787921 -3.16318 1.00794
H -2.76865 11.1003 2.82795 0 0 0 -2.13993 4.13956 -3.45684 1.00794
H -2.56755 9.93173 4.15596 0 0 0 -1.93426 -0.5714 4.52371 1.00794
H 0.66813 13.156 0.2855 0 0 0 4.54902 0.156651 -10.9634 1.00794
H 0.61389 12.127 1.73002 0 0 0 5.03061 -8.83403 4.40634 1.00794
H -0.86013 12.3725 0.7659 0 0 0 -7.53033 -6.90141 -5.67685 1.00794
H 1.8608 6.91754 8.43984 0 0 0 -10.3842 -8.54831 -0.151618 1.00794
H 3.29728 6.18684 9.1699 0 0 0 -17.1601 5.28582 15.7269 1.00794
H 2.79765 7.82036 9.67021 0 0 0 -0.494907 -7.23828 21.9524 1.00794
H 1.27061 11.0261 9.79027 0 0 0 -2.6411 1.46183 -7.56493 1.00794
H 0.25421 10.0856 10.8997 0 0 0 -0.869624 -0.92846 -9.35162 1.00794
H 0.4283 11.8406 11.1316 0 0 0 -9.10067 8.30583 0.739351 1.00794
H -1.83942 13.663 10.8332 0 0 0 -4.00351 -1.69344 -7.68283 1.00794
H -0.986235 13.2185 12.3462 0 0 0 4.24546 -0.674234 2.04857 1.00794
H 5.40947 0.53647 12.3771 0 0 0 -4.61929 -2.83826 2.41796 1.00794
H 1.85206 13.0744 3.67634 0 0 0 -3.48039 1.17154 -1.4825 1.00794
H 2.38716 11.382 3.622 0 0 0 -2.81974 -4.39516 -4.24009 1.00794
H 3.42131 12.6073 4.39012 0 0 0 5.09878 1.82976 6.58334 1.00794
H 7.65955 0.27156 14.6699 0 0 0 -6.544 0.586946 -5.61509 1.00794
H 1.46929 13.3452 15.11 0 0 0 -13.3955 -10.529 27.468 1.00794
H 8.12589 0.10087 16.3747 0 0 0 0.71438 -6.54669 3.58079 1.00794
H 11.9968 0.3047 0.68373 0 0 0 7.79293 -6.20433 -4.05301 1.00794
H 11.9677 1.52902 1.97207 0 0 0 10.3071 2.71577 5.97443 1.00794
H 3.67019 13.707 2.28906 0 0 0 -0.579706 -1.70033 0.596204 1.00794
H 10.6956 2.60275 4.75241 0 0 0 0.0508916 3.25929 2.61884 1.00794
H 10.2511 1.63465 3.32196 0 0 0 -7.35202 2.07221 -4.49704 1.00794
H 9.77496 1.11102 4.96399 0 0 0 -9.05481 1.79927 -0.653116 1.00794
H 2.80283 13.2063 11.9688 0 0 0 7.12005 3.88742 -0.230707 1.00794
H 9.53275 0.82769 11.8663 0 0 0 6.02613 10.6079 14.8266 1.00794
H 9.89006 0.10324 13.4361 0 0 0 11.5323 9.98033 -28.6441 1.00794
H 13.8759 0.78082 14.0067 0 0 0 -6.33701 -12.1024 -10.5565 1.00794
H 4.9403 13.3456 13.9676 0 0 0 -2.98574 16.0487 -14.8085 1.00794
H 12.4356 0.87354 15.053 0 0 0 -9.34627 4.58282 -3.88861 1.00794
H 10.5893 6.59577 2.59317 0 0 0 -4.51121 3.99292 -1.88343 1.00794
H 11.337 5.66844 1.27268 0 0 0 -11.9084 -5.07126 1.20068 1.00794
H 11.3904 5.04116 2.91968 0 0 0 -0.5593 -8.94123 1.0438 1.00794
H 9.57324 7.63756 4.24442 0 0 0 -1.89366 -7.75921 -0.705593 1.00794
H 10.5151 8.17567 5.6488 0 0 0 -2.79041 -4.27572 2.55964 1.00794
H 8.87146 8.77618 5.39768 0 0 0 -1.75476 -6.18616 7.12681 1.00794
H 9.08339 4.59857 10.94 0 0 0 2.17277 -1.26947 -4.09509 1.00794
H 9.59698 2.9272 10.6694 0 0 0 1.37611 -1.58354 3.23795 1.00794
H 8.91554 3.87361 9.32551 0 0 0 1.6408 0.935128 -7.78641 1.00794
H 10.4166 4.82727 5.33582 0 0 0 -0.350649 3.67193 -5.4843 1.00794
H 9.8539 4.26145 6.92499 0 0 0 -6.17309 -2.51343 7.32 1.00794
H 11.0299 5.59303 6.81823 0 0 0 3.57321 -0.260102 -0.0101489 1.00794
H 7.40386 7.46116 8.08017 0 0 0 -5.23325 0.164857 -1.61166 1.00794
H 9.10763 7.81564 8.35647 0 0 0 -3.45207 1.29942 -8.63937 1.00794
H 8.46256 6.20626 8.76035 0 0 0 2.62477 -8.13175 0.141172 1.00794
H 6.13403 7.07044 1.50835 0 0 0 3.27795 -3.75577 -0.273256 1.00794
H 5.53867 8.10651 0.18925 0 0 0 -0.568867 0.996816 -1.69019 1.00794
H 5.42556 8.66318 1.86184 0 0 0 1.30323 1.50724 -6.26733 1.00794
H -6.47858 13.4442 15.2566 0 0 0 -2.28906 -28.9484 -2.4097 1.00794
H 7.65443 12.6025 14.0266 0 0 0 -1.82734 0.893536 4.60491 1.00794
H -5.87957 13.357 13.5841 0 0 0 6.66015 2.05684 -5.45413 1.00794
H 6.42813 13.5351 17.2869 0 0 0 1.45457 -19.7219 9.48236 1.00794
H 7.1027 12.2045 16.3199 0 0 0 -8.12206 -6.38527 2.37157 1.00794
H -6.96804 12.9985 17.5569 0 0 0 5.74745 1.52568 3.94896 1.00794
H 3.51934 12.8401 8.58971 0 0 0 -4.55971 -3.72432 -4.50022 1.00794
H 5.27756 12.7734 8.7849 0 0 0 3.90842 -1.62139 0.518404 1.00794
H 4.29002 13.5596 10.0239 0 0 0 -6.64412 -8.40121 5.81197 1.00794
H 3.35125 9.60067 11.845 0 0 0 -1.01831 -4.71574 -0.764368 1.00794
H 2.2726 10.9942 11.7171 0 0 0 20.1581 1.75784 10.3286 1.00794
H 3.82916 11.1458 12.5471 0 0 0 -4.8664 3.55387 4.69483 1.00794
H 4.08591 10.2231 4.77863 0 0 0 2.97489 3.82845 5.32296 1.00794
H 5.15645 9.18972 3.84242 0 0 0 0.176909 1.82737 5.64355 1.00794
H 4.7821 10.8328 3.24909 0 0 0 0.611247 4.47034 -3.74296 1.00794
H 7.72908 9.85562 7.01563 0 0 0 3.42885 0.17702 -12.6034 1.00794
H 6.64338 8.65534 6.29167 0 0 0 -1.64564 2.71731 -5.46189 1.00794
H 5.9881 9.9118 7.34338 0 0 0 -3.63787 2.93344 2.3916 1.00794
H 3.16086 12.0833 15.2182 0 0 0 0.0353545 -8.23992 -2.81063 1.00794
H 4.86662 12.3251 15.6245 0 0 0 4.74934 -19.153 20.7386 1.00794
H 3.61523 13.0465 16.6532 0 0 0 -2.57762 1.70685 8.17394 1.00794
O 0.1714 1.43238 5.93921 0 0 0 -1.44166 -81.5363 1.43024 15.9994
O 2.11907 1.36434 7.71144 0 0 0 43.2539 21.8003 -15.5623 15.9994
O -0.54269 2.91293 0.15365 0 0 0 -28.3915 -28.3153 76.7421 15.9994
O 0.26133 1.54502 12.1619 0 0 0 40.0474 -67.2657 28.7019 15.9994
O -0.3929 2.30578 9.69536 0 0 0 6.07889 -51.6994 -65.9488 15.9994
O 0.63293 3.53933 7.63762 0 0 0 -8.78331 74.3529 -39.9407 15.9994
O -0.06749 4.15035 12.7352 0 0 0 -0.378237 -0.659846 -55.0212 15.9994
O -2.55842 6.07915 16.4685 0 0 0 54.1292 6.65372 -53.7528 15.9994
O -2.42697 7.85542 10.8979 0 0 0 -1.15548 82.9403 0.729619 15.9994
O -1.61948 6.31796 12.8635 0 0 0 -73.0763 -4.85235 10.3351 15.9994
O -3.57974 8.59864 8.65741 0 0 0 -78.1003 22.4052 -22.9222 15.9994
O -2.35157 8.68714 6.28727 0 0 0 -32.6277 1.96822 -63.1534 15.9994
O -5.87223 13.404 9.66141 0 0 0 -81.1042 14.1579 10.444 15.9994
O -3.57831 10.8015 7.2418 0 0 0 -65.9145 -10.5891 -6.39492 15.9994
O -3.73657 13.3471 7.99494 0 0 0 76.3745 -1.21127 19.2071 15.9994
O -0.61511 8.79315 12.5764 0 0 0 64.4768 11.921 13.7085 15.9994
O -4.60081 11.3983 16.1651 0 0 0 -48.8604 -34.4864 51.5091 15.9994
O -4.41838 11.9518 11.2898 0 0 0 24.9885 -56.6445 -29.8756 15.9994
O -2.50542 10.6415 12.5108 0 0 0 -31.1341 -44.2409 -50.1071 15.9994
O 2.21549 3.04479 5.59647 0 0 0 53.6663 42.8661 16.3869 15.9994
O 5.87492 0.94827 1.52814 0 0 0 -35.8787 -47.2992 -6.97115 15.9994
O 3.76271 1.39001 9.80297 0 0 0 45.0646 -57.2804 49.4035 15.9994
O 7.34557 1.33136 7.49458 0 0 0 -44.5925 -7.7113 20.0366 15.9994
O 4.37991 1.93921 18.1702 0 0 0 -31.7346 -48.4868 33.5599 15.9994
O 2.16664 3.01349 17.3239 0 0 0 -47.273 20.0769 -59.7771 15.9994
O 5.64246 2.75142 11.0657 0 0 0 47.8124 -47.2957 -51.9274 15.9994
O 3.68425 3.77251 3.47889 0 0 0 15.4333 6.0274 52.033 15.9994
O 5.52652 3.59854 1.49896 0 0 0 80.3116 35.6441 -15.6647 15.9994
O 0.13846 8.36309 5.34227 0 0 0 5.03172 52.1201 36.9007 15.9994
O 4.28271 3.88919 9.03481 0 0 0 -49.9097 3.5567 -34.72 15.9994
O 6.69192 3.91594 7.93684 0 0 0 66.4246 -3.122 14.2107 15.9994
O 1.09815 4.51199 10.1439 0 0 0 50.6949 -55.4067 46.3954 15.9994
O 0.03878 6.88269 10.8506 0 0 0 -14.381 22.3465 -94.7313 15.9994
O 4.95374 6.0137 7.57105 0 0 0 45.885 61.4923 6.52282 15.9994
O 4.44348 3.74508 16.1246 0 0 0 29.5262 41.9887 81.8853 15.9994
O 5.55101 3.10663 13.7576 0 0 0 -13.7647 -68.5841 9.00023 15.9994
O 0.26406 5.90354 14.6959 0 0 0 47.4781 17.0937 -52.6928 15.9994
O -0.1706 6.8176 17.1879 0 0 0 14.8234 67.7875 56.0939 15.9994
O 2.26615 6.09776 12.0706 0 0 0 -64.8497 -21.5637 43.1955 15.9994
O 3.7379 5.07765 13.9284 0 0 0 -62.172 -32.8323 15.3846 15.9994
O 0.93481 8.8958 2.82279 0 0 0 -4.44504 39.4851 3.86553 15.9994
O -1.00608 13.3094 3.62753 0 0 0 60.6217 6.00948 63.065 15.9994
O -2.46194 12.6644 5.70062 0 0 0 14.0994 77.3517 4.31174 15.9994
O 0.09356 9.42248 0.38033 0 0 0 -65.0552 -21.6118 -21.98 15.9994
O 3.6395 8.38196 6.9767 0 0 0 49.0148 44.1001 -37.2821 15.9994
O -1.2808 9.98722 8.33102 0 0 0 48.5429 -15.2393 0.260653 15.9994
O -0.70825 12.6554 8.29287 0 0 0 -72.5949 11.4821 -47.9982 15.9994
O -0.047 11.5193 5.42003 0 0 0 -10.8248 -94.7947 30.7533 15.9994
O 2.34074 10.782 6.63849 0 0 0 52.8967 -5.12371 -47.7494 15.9994
O 1.39496 13.2805 6.77451 0 0 0 58.6252 55.0487 -18.505 15.9994
O 1.66093 7.93003 15.7125 0 0 0 -45.6536 61.8455 40.3804 15.9994
O 3.53478 7.73425 13.8388 0 0 0 65.2431 44.5182 -13.8478 15.9994
O -0.38651 11.0766 14.0147 0 0 0 34.5965 12.4902 -35.5691 15.9994
O 0.35855 10.7913 16.5104 0 0 0 17.686 -65.5869 -33.1408 15.9994
O -1.96935 12.0415 15.9662 0 0 0 -35.8805 45.8081 -62.79 15.9994
O 14.0828 0.15557 3.84786 0 0 0 27.605 -72.2353 43.4954 15.9994
O 7.09255 2.09293 3.58057 0 0 0 -49.2767 26.4652 13.79 15.9994
O 7.90633 3.24724 5.76621 0 0 0 33.6184 60.0237 20.4328 15.9994
O 11.8208 3.09743 0.03168 0 0 0 13.1353 41.8092 65.372 15.9994
O 12.7439 1.52891 11.3527 0 0 0 -42.3053 25.5323 -49.231 15.9994
O 8.53867 4.32792 3.3912 0 0 0 -25.4247 63.9511 43.7769 15.9994
O 9.44425 3.22068 1.20576 0 0 0 -33.0146 -46.0208 38.6315 15.9994
O 5.8974 5.18948 3.55815 0 0 0 81.235 -56.0331 9.11009 15.9994
O 4.91931 7.01653 5.14936 0 0 0 -25.6646 54.7515 -52.1279 15.9994
O 10.0988 5.64888 17.4213 0 0 0 36.4831 -38.5129 25.4462 15.9994
O 8.1275 5.55346 1.01549 0 0 0 -56.4978 1.11269 30.2731 15.9994
O 11.3478 6.06463 9.37504 0 0 0 5.23864 -27.8601 -81.89 15.9994
O 6.13847 5.58214 9.87116 0 0 0 65.4916 -35.2613 24.4574 15.9994
O 4.93935 6.52377 12.0107 0 0 0 59.1985 -38.2909 35.7905 15.9994
O 7.38502 6.01599 5.61285 0 0 0 11.629 -82.9142 54.6544 15.9994
O 11.2994 2.87959 13.1097 0 0 0 36.6191 37.4251 -34.7357 15.9994
O 10.9505 4.28719 15.3176 0 0 0 60.3079 -41.8014 25.2237 15.9994
O 6.16589 5.39292 14.8986 0 0 0 56.0994 -6.50898 -41.3599 15.9994
O 7.55331 6.21158 16.8812 0 0 0 -2.43478 -67.3946 -9.44752 15.9994
O 10.007 7.91963 10.7621 0 0 0 -23.6056 70.5688 -34.443 15.9994
O 7.34847 7.47809 11.1822 0 0 0 1.35009 71.9925 -34.7805 15.9994
O 8.7035 8.00703 0.02944 0 0 0 31.809 32.895 -12.1402 15.9994
O 8.53471 9.1471 2.35838 0 0 0 16.6801 -48.08 43.0489 15.9994
O 7.48955 10.3752 0.24522 0 0 0 62.1524 16.9302 -48.9442 15.9994
O 6.16234 12.1702 1.72239 0 0 0 6.5676 -32.463 59.642 15.9994
O 3.67924 10.0578 8.91183 0 0 0 55.5222 -38.9908 7.2945 15.9994
O 7.75882 10.9632 4.12397 0 0 0 -8.91905 79.9486 0.0316839 15.9994
O 6.907 7.92467 14.8095 0 0 0 -40.1987 -0.429025 -25.4839 15.9994
O 8.79946 8.59126 13.0145 0 0 0 73.3222 26.5937 16.6438 15.9994
O 8.3359 10.0976 15.1519 0 0 0 4.23078 14.7064 47.5472 15.9994
O 3.91669 9.32698 16.0037 0 0 0 65.6282 -30.726 5.37982 15.9994
O 5.17525 10.62 18.0621 0 0 0 1.52707 -63.3257 47.2757 15.9994
O 2.56854 10.5038 17.9971 0 0 0 20.8941 -12.0919 74.8019 15.9994
O 8.04998 11.7664 11.5667 0 0 0 40.612 44.9415 62.6 15.9994
O 5.82505 10.6227 10.549 0 0 0 4.56886 -29.0859 -48.4271 15.9994
O 6.6014 10.0147 13.0885 0 0 0 -84.1808 -24.3902 17.7051 15.9994
365
Timestep=92 Time=92.000000 pbc="T T T" Lattice="15.0709 0 0 -7.73177 13.8463 0 0.246278 -0.138154 18.3222" Potential_energy=39.17452014678031 Temperature=0 Stress="9387.217300997665 -68.76257731728853 -2591.374761440371 -68.76257731728853 10585.398807887794 4822.249932968372 -2591.374761440371 4822.249932968372 15739.691919231713" Properties=species:S:1:pos:R:3:vel:R:3:forces:R:3:mass:R:1
Si -0.717169 1.51888 5.18866 0 0 0 0.0564324 -0.00332554 0.0221025 28.0855
Si 0.856949 3.22175 0.24385 0 0 0 0.038614 -1.20735 -0.155199 28.0855
Si 3.47952 0.48209 8.61807 0 0 0 -0.506456 -0.681589 0.298254 28.0855
Si -0.427158 1.32401 11.0243 0 0 0 -0.84151 0.0677277 -0.728715 28.0855
Si 1.78408 2.45847 6.79891 0 0 0 -0.150143 0.0173038 0.13012 28.0855
Si 13.2834 2.84597 17.713 0 0 0 0.181881 -1.10621 -0.321529 28.0855
Si 0.760597 2.76363 13.352 0 0 0 1.01195 0.743946 0.0124016 28.0855
Si -1.67317 6.9288 17.5002 0 0 0 -0.377647 0.553503 -0.288504 28.0855
Si 0.582048 3.5583 9.35163 0 0 0 0.572596 0.407788 -0.81686 28.0855
Si -4.08688 7.90824 10.0832 0 0 0 -2.82452 0.834715 -1.84317 28.0855
Si -1.55924 7.2024 6.01557 0 0 0 0.031967 0.272686 0.369981 28.0855
Si -0.721409 5.29247 13.8846 0 0 0 -0.767677 0.375997 0.532963 28.0855
Si 11.0557 5.69805 16.1339 0 0 0 -0.00058646 0.33018 -0.241157 28.0855
Si -1.51894 7.35884 11.8687 0 0 0 -5.27682 1.9858 1.64155 28.0855
Si 8.69513 10.462 2.93242 0 0 0 -0.600545 0.244695 -0.555682 28.0855
Si -2.92864 11.8978 17.1562 0 0 0 -0.582475 -0.834719 -0.764197 28.0855
Si -2.79174 9.36587 7.67048 0 0 0 0.249902 0.416953 -0.0638748 28.0855
Si -5.68989 12.3184 10.3392 0 0 0 -0.864602 -0.838611 0.132561 28.0855
Si -3.52446 12.1826 6.5568 0 0 0 0.0556995 0.0226798 -0.0263075 28.0855
Si -1.43036 9.88479 13.3208 0 0 0 -1.17143 0.373548 -0.700389 28.0855
Si -5.30074 10.9564 15.5296 0 0 0 0.491581 -0.206257 1.05055 28.0855
Si -3.3141 11.9397 12.0837 0 0 0 -1.02231 0.0977759 -0.538193 28.0855
Si 6.93895 0.559874 2.79258 0 0 0 -0.142302 -0.501862 0.390006 28.0855
Si 2.77527 3.00064 3.87523 0 0 0 0.344608 0.643217 0.412809 28.0855
Si 5.43623 2.03005 0.7264 0 0 0 0.369601 0.403362 -0.483714 28.0855
Si 0.273642 13.8046 7.93834 0 0 0 -0.0829997 0.238353 0.900305 28.0855
Si 4.55799 2.88579 10.18 0 0 0 0.188352 0.33692 0.213458 28.0855
Si 7.0931 2.79512 7.08062 0 0 0 -0.573603 -0.274495 -0.671657 28.0855
Si 3.61426 2.66555 16.9586 0 0 0 -0.661165 -0.105992 0.487097 28.0855
Si 6.27947 2.89505 12.7204 0 0 0 -0.413377 1.22122 -0.0842778 28.0855
Si 4.93957 4.50634 2.34822 0 0 0 0.224954 -0.0673188 1.0883 28.0855
Si 0.84233 8.24768 4.57628 0 0 0 0.298004 -0.859036 -0.316545 28.0855
Si 5.73009 5.136 8.58979 0 0 0 -0.217888 1.19562 1.30685 28.0855
Si 1.069 6.13403 10.835 0 0 0 -2.86855 -0.374858 -0.944161 28.0855
Si 4.02598 6.86594 6.63482 0 0 0 -0.180485 0.115408 0.94913 28.0855
Si 4.67715 4.42712 14.7234 0 0 0 -1.23716 -0.838087 0.138524 28.0855
Si 0.931761 6.5951 16.0795 0 0 0 -0.29204 -0.293429 0.615255 28.0855
Si 3.34894 6.4412 12.993 0 0 0 -3.04896 1.41466 0.381523 28.0855
Si 0.316911 8.5147 1.68435 0 0 0 0.417693 0.295497 0.0815701 28.0855
Si -1.19996 11.9227 4.66573 0 0 0 0.647394 1.4724 1.01608 28.0855
Si 0.82251 10.5822 17.9154 0 0 0 -0.354064 -0.69807 -0.24495 28.0855
Si 3.18354 9.672 7.56039 0 0 0 0.60127 -0.45969 -0.270713 28.0855
Si -0.826036 11.0915 8.98976 0 0 0 -0.133887 0.726143 -0.58146 28.0855
Si 1.52925 11.9755 5.93023 0 0 0 0.151313 0.559918 0.51174 28.0855
Si 3.15937 8.47817 15.1829 0 0 0 -0.09216 -0.149367 -0.667727 28.0855
Si -0.485722 11.803 15.3502 0 0 0 -0.138388 -0.38554 -0.0245496 28.0855
Si 14.1869 0.0736915 2.46849 0 0 0 -0.710431 0.397371 0.179761 28.0855
Si 8.34281 2.69654 4.32148 0 0 0 0.183696 0.0122502 -0.0430936 28.0855
Si 10.186 2.57069 0.0734558 0 0 0 -0.156404 -0.0577208 -0.435695 28.0855
Si 12.0731 1.6947 12.5124 0 0 0 1.45753 0.436419 -0.343825 28.0855
Si 8.94122 4.52921 1.96512 0 0 0 -0.646239 0.466809 0.50977 28.0855
Si 5.9768 6.36667 4.50299 0 0 0 0.409857 -0.203373 -0.265019 28.0855
Si 8.73861 6.32675 17.923 0 0 0 -0.441948 -0.072212 0.554641 28.0855
Si 11.2797 4.91792 9.8607 0 0 0 -0.0236845 -0.133299 0.125048 28.0855
Si 5.57001 6.84134 10.9296 0 0 0 -1.51004 -1.09807 -0.576725 28.0855
Si 8.60407 6.39505 6.02134 0 0 0 0.123255 0.789879 -0.368572 28.0855
Si 10.6195 3.27736 14.452 0 0 0 -1.30626 -0.239963 0.0517147 28.0855
Si 6.51205 6.53827 15.719 0 0 0 -0.0218179 -1.18699 -0.0347625 28.0855
Si 8.38573 7.56592 11.8984 0 0 0 -1.02074 0.0651524 0.78147 28.0855
Si 7.29795 9.06881 0.62898 0 0 0 0.692126 0.543747 0.358494 28.0855
Si 6.02009 11.7669 0.305236 0 0 0 0.761165 -0.287782 -0.39507 28.0855
Si 4.82667 10.788 10.01 0 0 0 -0.0747281 -0.301209 0.391262 28.0855
Si 6.36726 11.0251 4.84211 0 0 0 0.522506 -0.729363 -0.44041 28.0855
Si 7.73532 9.18576 14.3268 0 0 0 -1.0877 -0.400185 0.395645 28.0855
Si 3.75328 10.568 17.1689 0 0 0 -0.704367 0.51537 0.124412 28.0855
Si 7.0087 11.2675 12.0502 0 0 0 -0.775045 -0.139743 0.915569 28.0855
C -0.829246 3.16473 4.29479 0 0 0 -0.500122 -0.330206 0.183177 12.0107
C 12.6943 1.1477 5.94483 0 0 0 -0.498687 0.631614 0.915794 12.0107
C 0.208225 2.26433 15.0205 0 0 0 0.333876 -0.317534 1.29459 12.0107
C -3.05592 8.28862 0.0481416 0 0 0 0.846868 0.268196 -0.102669 12.0107
C -2.21149 6.65364 4.36299 0 0 0 -0.235193 -0.265298 -0.386016 12.0107
C -1.00711 5.7326 6.99415 0 0 0 -0.0944912 0.640989 0.0665056 12.0107
C -5.42955 11.48 1.68678 0 0 0 0.136732 -0.298377 -0.348662 12.0107
C 8.70995 11.2233 9.00841 0 0 0 -0.701294 -0.701067 -0.620448 12.0107
C -5.13039 12.4892 5.68767 0 0 0 0.672814 -0.178225 -0.196941 12.0107
C 10.1649 6.56555 14.7859 0 0 0 0.229691 0.296239 0.486697 12.0107