371
Timestep=0 Time=0.000000 pbc="T T T" Lattice="16.8597 0 0 -8.85103 12.6095 0 0.45889 0.205421 18.6403" Potential_energy=1434.6153466957621 Temperature=0 Stress="93377.16310981296 1780.0029027308017 522.4073954340844 1780.0029027308017 93070.58004930556 -1105.619664130807 522.4073954340844 -1105.619664130807 103353.99007663954" Properties=species:S:1:pos:R:3:vel:R:3:forces:R:3:mass:R:1
Si 2.0619 0.8789 2.97661 0 0 0 65.5605 -5.06367 15.3605 28.0855
Si -1.44846 2.44081 4.37916 0 0 0 63.5205 -14.2252 39.5427 28.0855
Si -5.34686 12.2052 9.07344 0 0 0 4.77539 -10.8095 -18.8711 28.0855
Si 0.29591 2.44373 6.7444 0 0 0 -31.9021 -0.602819 -20.9748 28.0855
Si -5.25181 12.7405 14.626 0 0 0 10.99 -44.152 29.9174 28.0855
Si 15.3909 2.2577 16.6632 0 0 0 11.4929 -47.4983 6.52765 28.0855
Si 2.32557 1.42121 11.9612 0 0 0 9.71845 -25.7598 -43.8284 28.0855
Si -0.21116 4.51992 2.53837 0 0 0 42.5205 -0.815564 -28.9893 28.0855
Si -3.85942 6.8158 4.36217 0 0 0 -33.8995 36.067 -21.8057 28.0855
Si -0.89954 6.49531 0.46351 0 0 0 -13.2789 -26.477 -33.9915 28.0855
Si -1.08882 4.44961 8.35727 0 0 0 -29.4321 3.80446 1.04244 28.0855
Si 11.2469 6.98727 10.2697 0 0 0 7.15767 -82.4376 8.46696 28.0855
Si -1.69579 6.94177 6.77435 0 0 0 22.335 88.8249 21.3324 28.0855
Si 0.388 4.26987 15.6002 0 0 0 -16.9322 -33.1118 -18.2994 28.0855
Si -0.95633 5.62971 13.0905 0 0 0 -58.9309 -55.3844 -10.4937 28.0855
Si 9.01764 10.9077 4.21024 0 0 0 16.6834 -6.51503 -32.6843 28.0855
Si -5.97711 12.0592 0.28445 0 0 0 63.0512 -21.7718 -18.7451 28.0855
Si -3.04169 8.50751 9.17882 0 0 0 7.46983 19.4685 -23.3146 28.0855
Si -3.69758 10.5673 7.06973 0 0 0 9.71637 -49.6219 13.684 28.0855
Si -6.99047 10.9157 16.6081 0 0 0 74.9694 -48.5188 32.8787 28.0855
Si -3.53524 10.1452 14.1129 0 0 0 -59.4011 -22.474 34.0877 28.0855
Si 0.67471 12.0578 2.46501 0 0 0 -95.7662 -55.8964 -6.26462 28.0855
Si 7.53441 1.79389 17.5442 0 0 0 -54.0145 -44.5611 -33.0479 28.0855
Si 8.8157 0.81363 7.59531 0 0 0 -16.7393 9.12326 0.340894 28.0855
Si 4.79787 2.10441 10.3346 0 0 0 -29.6477 11.2972 35.0948 28.0855
Si 8.5874 0.27105 13.7133 0 0 0 -6.84072 -39.3747 9.44659 28.0855
Si 4.85012 2.62389 16.2876 0 0 0 3.48172 13.5877 56.1873 28.0855
Si 7.00166 2.69024 12.4822 0 0 0 32.6961 32.5173 19.0523 28.0855
Si 6.24028 3.34281 1.52181 0 0 0 7.46179 35.0015 -4.18464 28.0855
Si 1.64164 6.11569 4.32691 0 0 0 -9.01171 53.9818 16.7986 28.0855
Si 4.29321 5.46412 0.3432 0 0 0 0.973004 32.8936 -29.5092 28.0855
Si 5.37691 4.48793 8.40087 0 0 0 54.7967 16.1878 -26.2532 28.0855
Si 0.39833 6.12989 10.3683 0 0 0 22.7253 -50.8945 -41.5068 28.0855
Si 4.14373 6.17757 6.1327 0 0 0 25.6292 52.9561 -4.45248 28.0855
Si 5.83368 4.6978 14.5041 0 0 0 44.6469 -29.5072 14.763 28.0855
Si 2.13966 6.1242 17.6119 0 0 0 9.1566 38.2993 -21.2168 28.0855
Si 4.22973 6.7156 12.9413 0 0 0 -2.78564 -69.6593 22.4069 28.0855
Si 3.1292 7.8075 2.15996 0 0 0 12.0983 17.7426 12.6795 28.0855
Si 0.59219 9.85601 4.70506 0 0 0 -14.141 -31.6915 -13.1313 28.0855
Si 1.89092 10.1036 0.24167 0 0 0 -63.1249 -52.0021 -12.392 28.0855
Si 1.27343 8.51997 8.56874 0 0 0 -1.1348 10.2899 -56.3508 28.0855
Si -1.7657 10.0366 11.4389 0 0 0 -52.4594 74.3366 -39.7155 28.0855
Si 2.55518 9.2635 13.9286 0 0 0 -62.0008 -43.2673 -0.385026 28.0855
Si 1.14726 11.0561 11.7528 0 0 0 -48.4071 -23.3798 45.0103 28.0855
Si 5.24838 11.8733 0.83367 0 0 0 24.6474 6.09957 37.7836 28.0855
Si 10.2957 2.21441 3.81307 0 0 0 -10.2825 -9.00431 41.7163 28.0855
Si 12.5867 1.40172 17.8698 0 0 0 16.623 26.4201 -0.262467 28.0855
Si 4.84078 12.4191 7.67977 0 0 0 49.3748 -30.1201 34.3745 28.0855
Si 10.3757 2.8287 9.15824 0 0 0 -1.62074 27.7275 -20.9808 28.0855
Si 12.6755 2.08803 5.69514 0 0 0 23.7722 25.8421 -10.0289 28.0855
Si 14.4965 0.1913 14.6509 0 0 0 -17.6806 -32.7401 -45.1251 28.0855
Si 10.2793 1.69952 16.0127 0 0 0 -20.8903 -8.42616 -35.8471 28.0855
Si 12.1494 2.09755 11.5903 0 0 0 81.5218 -4.63321 -28.3691 28.0855
Si 12.0099 4.60064 2.38079 0 0 0 30.6715 28.1923 -27.5962 28.0855
Si 10.5831 6.26646 0.057 0 0 0 18.1851 -5.15455 -29.7251 28.0855
Si 11.9356 4.6123 7.31336 0 0 0 -14.6639 11.1863 -4.20121 28.0855
Si 6.06779 6.87016 10.3591 0 0 0 -7.96369 26.0248 -0.536896 28.0855
Si 10.2864 6.6873 5.92266 0 0 0 7.64822 -22.6078 -4.21624 28.0855
Si 11.9505 3.72659 14.3699 0 0 0 62.7667 9.85468 9.81955 28.0855
Si 8.67785 7.81751 11.9625 0 0 0 -28.8529 -6.7946 15.5738 28.0855
Si 4.56902 10.194 3.36315 0 0 0 -30.1832 43.9066 16.5448 28.0855
Si 7.00999 10.1528 17.3462 0 0 0 3.7491 -43.7904 51.6519 28.0855
Si 6.96409 8.48776 8.1226 0 0 0 24.5973 5.35457 17.9037 28.0855
Si 3.22484 10.6043 9.63323 0 0 0 -1.15291 7.85286 38.3218 28.0855
Si 6.46806 10.372 5.79805 0 0 0 -5.59556 -15.1529 20.6185 28.0855
Si 4.28522 10.59 16.3047 0 0 0 49.8007 -42.9527 -30.077 28.0855
H 3.39525 0.78364 3.62331 0 0 0 -15.0226 -2.11447 3.92015 1.00794
H 1.52794 2.25545 2.99592 0 0 0 5.73806 -7.36251 2.30233 1.00794
H -0.12807 1.03726 6.93254 0 0 0 -0.526676 5.57517 -5.52023 1.00794
H 2.08565 0.28834 11.0599 0 0 0 -24.9484 41.3876 45.077 1.00794
H 0.47299 3.88607 1.39114 0 0 0 1.35628 0.860918 4.70179 1.00794
H -1.11965 5.73721 18.2004 0 0 0 4.30921 5.41294 0.402463 1.00794
H 14.4372 3.83163 8.42359 0 0 0 6.62462 -1.59395 -1.73385 1.00794
H -1.63189 4.44276 12.4982 0 0 0 1.15843 5.42298 2.96958 1.00794
H 4.05651 0.50409 17.9529 0 0 0 -3.32883 -11.8931 9.95358 1.00794
H -4.37254 9.41105 6.44355 0 0 0 14.4823 12.1122 -2.58443 1.00794
H 10.5739 9.62697 16.4456 0 0 0 -1.15513 5.5898 7.22732 1.00794
H -2.85424 9.8806 15.4125 0 0 0 -7.85635 -2.36319 -4.44953 1.00794
H 0.362474 12.5632 6.44972 0 0 0 -1.56303 2.6013 6.74233 1.00794
H 7.81208 1.81467 7.1206 0 0 0 5.05156 -6.42651 7.95909 1.00794
H -0.90261 11.7033 14.3286 0 0 0 3.17832 1.71641 -2.63901 1.00794
H 4.12474 2.71382 17.5626 0 0 0 3.56794 1.28344 1.21169 1.00794
H 0.77373 6.87935 5.22958 0 0 0 6.98642 -6.73573 -3.82601 1.00794
H -0.71285 7.99061 6.4582 0 0 0 -7.40587 -6.45708 5.68781 1.00794
H 6.46178 4.0439 7.50554 0 0 0 -4.77786 -0.752342 0.735293 1.00794
H 7.14302 4.84957 15.1627 0 0 0 -1.28116 -7.55528 0.469955 1.00794
H 1.89544 9.20293 5.00716 0 0 0 -7.95323 0.429266 -1.96277 1.00794
H -0.03399 10.2189 6.00056 0 0 0 2.12802 -3.41815 -7.09264 1.00794
H 1.0944 9.96236 18.1884 0 0 0 3.81263 0.586755 0.769867 1.00794
H 3.79683 7.55394 6.55306 0 0 0 5.91635 -1.7581 -4.10607 1.00794
H 0.3705 9.64163 8.21046 0 0 0 6.94685 -7.96729 -1.6949 1.00794
H 1.61164 7.67834 7.39571 0 0 0 -5.43757 3.54327 4.62038 1.00794
H -2.27747 11.2651 10.8184 0 0 0 0.254856 -2.60809 2.48085 1.00794
H -0.70087 1.21464 4.12039 0 0 0 -13.1838 14.7704 7.26936 1.00794
H 13.5326 0.88722 13.7683 0 0 0 8.59119 -5.65018 10.2074 1.00794
H 13.3521 2.70918 10.9659 0 0 0 -6.3904 0.234435 2.24989 1.00794
H 6.4562 11.8155 13.8883 0 0 0 -4.10669 3.21263 2.96057 1.00794
H 12.361 0.66393 11.8864 0 0 0 -1.59758 6.72456 -2.22189 1.00794
H 12.8569 5.69704 7.65155 0 0 0 -14.4509 -9.21636 0.398889 1.00794
H 10.5816 6.24513 9.18204 0 0 0 5.50045 -1.85012 14.3389 1.00794
H 13.3467 3.65475 14.861 0 0 0 -6.3358 -0.0801531 -2.19476 1.00794
H 11.5297 5.13804 14.1826 0 0 0 7.5909 -5.72077 0.436167 1.00794
H 7.44154 8.98803 18.1374 0 0 0 -0.541796 6.58534 1.65203 1.00794
H 7.58922 7.18857 7.7698 0 0 0 -12.8716 3.45555 -0.817429 1.00794
H -5.84046 9.8817 9.69931 0 0 0 -10.2418 11.3421 -8.16959 1.00794
H -6.35462 10.9804 10.982 0 0 0 -1.19883 -17.7503 3.23376 1.00794
H -4.6395 10.5814 10.7944 0 0 0 4.03807 3.415 1.91491 1.00794
H -7.79446 12.6074 9.16277 0 0 0 -5.58814 -6.38853 2.00032 1.00794
H 1.74124 0.26703 7.55516 0 0 0 8.96403 -16.5145 0.406271 1.00794
H 1.90916 1.51265 8.81971 0 0 0 12.5841 2.55525 9.40669 1.00794
H 2.09891 3.2206 5.24516 0 0 0 -2.0547 -1.36158 -3.97706 1.00794
H 2.47152 1.60944 5.91442 0 0 0 0.711258 -4.69925 -2.65569 1.00794
H 2.68815 3.06246 6.90801 0 0 0 0.164388 2.52781 7.31342 1.00794
H 0.79214 1.83396 17.3754 0 0 0 -16.3396 -18.8468 28.2629 1.00794
H 16.6083 0.75689 18.2741 0 0 0 12.6411 9.41064 -13.2248 1.00794
H -0.59059 2.27951 0.08377 0 0 0 2.68985 9.95221 -5.17043 1.00794
H -4.5321 8.10947 2.4539 0 0 0 -2.51008 -0.381068 -4.04535 1.00794
H -2.75718 8.00178 2.50725 0 0 0 -2.30136 -10.8942 13.5733 1.00794
H -3.61309 9.14376 3.57461 0 0 0 -0.833666 4.29178 7.36546 1.00794
H -1.09239 8.63685 17.8182 0 0 0 -0.391811 3.35167 -4.4286 1.00794
H -1.18892 8.95334 0.83863 0 0 0 5.26976 -0.523036 3.80556 1.00794
H -2.74171 8.16642 0.46562 0 0 0 6.10543 1.57461 -0.0684988 1.00794
H 0.37949 2.56168 11.0541 0 0 0 -1.5325 1.81075 -5.00134 1.00794
H 0.84503 3.34514 12.5851 0 0 0 9.7175 1.96753 -0.334476 1.00794
H -0.01214 1.78639 12.6044 0 0 0 -2.87777 -4.60148 2.7445 1.00794
H 2.26699 3.17074 14.4995 0 0 0 1.86354 -1.705 -2.35228 1.00794
H 1.00571 1.96754 14.8667 0 0 0 -7.11279 -2.64636 -2.78478 1.00794
H 2.06253 2.59602 16.1504 0 0 0 13.2316 10.8055 -13.0308 1.00794
H 12.9884 5.36563 10.8738 0 0 0 5.02255 -0.674091 -5.26089 1.00794
H 11.4599 5.04143 11.7206 0 0 0 -7.63268 2.16782 -3.57605 1.00794
H 12.5205 6.34074 12.2935 0 0 0 -7.92865 3.39114 -2.56353 1.00794
H -2.70218 7.36975 13.0771 0 0 0 7.26171 2.16049 -6.22945 1.00794
H -1.66427 7.51996 14.5106 0 0 0 4.35899 1.92499 3.98297 1.00794
H -2.89333 6.23618 14.45 0 0 0 -2.9549 -2.92212 2.89589 1.00794
H 9.11875 10.0659 1.91668 0 0 0 -0.593486 9.0178 1.13128 1.00794
H 7.43578 10.3041 2.3924 0 0 0 -1.70668 5.33885 -0.906421 1.00794
H 8.31688 8.87933 2.96061 0 0 0 0.26599 0.0132079 4.8097 1.00794
H -4.34209 10.2099 0.28415 0 0 0 -0.316427 -2.0822 -6.53418 1.00794
H -5.31949 10.1706 1.76428 0 0 0 -5.8148 3.79523 1.52124 1.00794
H -4.00503 11.3527 1.60148 0 0 0 1.30229 6.31676 2.6347 1.00794
H -5.92857 9.4391 4.88112 0 0 0 -11.2954 -0.40558 -6.70801 1.00794
H -5.89007 11.0591 5.6236 0 0 0 -16.4288 4.57949 -9.53642 1.00794
H -5.40523 10.8427 3.93142 0 0 0 1.61172 2.00637 -2.60869 1.00794
H -4.72015 7.96798 14.0358 0 0 0 2.77579 -3.80779 3.59005 1.00794
H -5.2698 9.05892 12.7395 0 0 0 2.34752 3.80257 -4.36466 1.00794
H -5.82441 9.30307 14.4087 0 0 0 0.649568 2.76496 -4.96891 1.00794
H -1.69713 12.0958 2.99599 0 0 0 -2.63397 -0.960401 4.5326 1.00794
H -1.42185 11.1253 1.53503 0 0 0 2.14867 -5.30215 -1.32855 1.00794
H 7.42188 0.29259 1.44082 0 0 0 7.26318 1.16835 5.36657 1.00794
H -1.74429 12.2541 16.5067 0 0 0 -1.0431 -2.65721 -3.20053 1.00794
H -2.44432 12.2561 18.1346 0 0 0 -4.17366 5.42562 3.19794 1.00794
H -0.69446 12.0158 17.9188 0 0 0 9.25251 1.11487 0.748113 1.00794
H 6.57389 1.68472 3.3628 0 0 0 4.55145 -1.3417 -3.29604 1.00794
H 4.99342 1.53922 2.57446 0 0 0 7.96515 -0.0718691 -9.96306 1.00794
H 5.27394 2.84264 3.74151 0 0 0 -1.12158 6.58019 3.25572 1.00794
H 7.45703 5.43063 1.08783 0 0 0 -1.50682 2.23338 0.653926 1.00794
H 8.5057 4.34152 2.00858 0 0 0 5.02548 -8.57228 -3.85125 1.00794
H 7.17435 5.20753 2.81507 0 0 0 -4.05037 1.62064 1.55686 1.00794
H 6.7581 6.85638 18.248 0 0 0 1.65304 0.708407 2.31208 1.00794
H 5.60536 6.81309 16.9137 0 0 0 -3.83807 0.608525 -2.90326 1.00794
H 6.54901 5.36122 17.3159 0 0 0 1.32137 -6.51014 3.65226 1.00794
H 5.68223 6.6989 4.2961 0 0 0 -2.62387 3.73507 -5.49181 1.00794
H 5.91381 5.02176 4.8798 0 0 0 -2.20682 -6.61077 -0.235967 1.00794
H 6.56202 6.3974 5.80855 0 0 0 -4.18306 3.18485 9.24871 1.00794
H 2.06195 5.15875 8.91661 0 0 0 -0.0650123 -1.06795 -4.90627 1.00794
H 2.11294 4.3059 10.4632 0 0 0 -7.3065 -4.49986 4.47177 1.00794
H 2.86199 5.9128 10.2993 0 0 0 0.224255 6.31898 0.253518 1.00794
H 2.77413 5.22857 14.0985 0 0 0 -0.303699 5.32721 2.7029 1.00794
H 3.2982 4.48818 12.5691 0 0 0 3.48974 -0.561855 -1.97136 1.00794
H 1.9922 5.71193 12.5945 0 0 0 21.2127 2.58893 9.09421 1.00794
H 0.05257 8.55581 2.71438 0 0 0 2.58316 1.48621 -3.51809 1.00794
H -1.35373 9.47395 3.30044 0 0 0 3.13443 6.84709 -0.032607 1.00794
H -0.91163 7.93408 4.06078 0 0 0 3.69037 -2.05166 6.82811 1.00794
H -3.26645 12.0695 5.21739 0 0 0 -2.00099 3.29615 -4.93002 1.00794
H -2.18399 10.6555 5.12695 0 0 0 -5.2581 -4.66043 -0.615512 1.00794
H -1.80472 11.9933 6.22575 0 0 0 -12.89 -7.29348 0.610241 1.00794
H -0.34778 11.4923 9.10782 0 0 0 2.85172 -1.09298 -4.19995 1.00794
H -1.88392 12.3521 8.82806 0 0 0 -4.08565 1.54675 -7.26243 1.00794
H 8.1657 0.42603 9.92888 0 0 0 2.18308 5.51924 3.65328 1.00794
H 2.26211 8.26361 16.482 0 0 0 -3.36466 -2.76243 20.1526 1.00794
H 3.48431 7.15071 15.8026 0 0 0 0.278201 -10.7354 -0.648756 1.00794
H 3.74677 7.93028 17.3706 0 0 0 -1.10378 0.948496 5.45103 1.00794
H 0.98749 7.53626 14.8598 0 0 0 4.87187 -7.19867 -0.894863 1.00794
H 0.31056 8.46743 13.513 0 0 0 -2.28602 -1.35928 -3.14994 1.00794
H 0.40753 9.2058 15.1242 0 0 0 -1.05466 4.72294 3.49383 1.00794
H 15.0798 1.44362 1.52472 0 0 0 -6.33502 -7.42226 2.33557 1.00794
H 16.0222 0.06648 2.13081 0 0 0 2.99512 -6.51522 -5.95305 1.00794
H 14.4537 0.46772 2.85459 0 0 0 -3.89273 -9.7407 -14.1707 1.00794
H 8.13091 1.92328 4.94748 0 0 0 0.554251 -7.02632 -4.72275 1.00794
H 8.10145 3.36406 3.90625 0 0 0 4.26877 -3.91244 6.13162 1.00794
H 8.96479 3.40249 5.45701 0 0 0 1.69418 3.006 4.23311 1.00794
H 15.3971 1.27934 8.69747 0 0 0 -2.98341 0.749213 0.208391 1.00794
H 6.5027 12.3306 9.53887 0 0 0 -4.77722 6.75413 -0.0295514 1.00794
H 14.0856 0.92149 9.82739 0 0 0 -1.01667 -2.68017 -2.30563 1.00794
H 7.96673 3.25901 9.59384 0 0 0 1.18203 -8.38234 -0.12702 1.00794
H 8.60192 4.11144 8.17031 0 0 0 0.0271409 2.68515 -4.4773 1.00794
H 8.9236 4.7445 9.7861 0 0 0 7.28846 5.04864 -0.0678168 1.00794
H 8.29991 4.68412 11.8488 0 0 0 -6.3113 2.19118 1.25167 1.00794
H 9.34451 3.22729 11.8331 0 0 0 -16.795 2.46516 13.0331 1.00794
H 8.82095 3.93053 13.3735 0 0 0 4.30455 -0.273662 2.20248 1.00794
H 11.347 3.44278 18.4415 0 0 0 4.82965 -4.60664 -2.75653 1.00794
H 11.4537 2.37885 1.25695 0 0 0 0.546289 -48.2425 -33.2004 1.00794
H 10.0748 1.77506 0.36073 0 0 0 -5.89905 -3.67694 3.81946 1.00794
H 12.9759 3.89961 0.21129 0 0 0 3.32829 10.2381 -5.65826 1.00794
H 13.6646 2.95187 1.55038 0 0 0 -8.93006 0.156395 5.43482 1.00794
H -2.7027 4.62592 1.30733 0 0 0 -20.9043 -9.16433 -6.34014 1.00794
H 12.1073 7.1186 16.5888 0 0 0 -1.60469 1.50313 -4.38893 1.00794
H -3.65284 6.04504 17.4757 0 0 0 -0.251181 -7.70116 2.92817 1.00794
H -3.79117 7.75894 17.9292 0 0 0 -14.5231 0.300333 -1.75917 1.00794
H 9.77385 8.55087 18.267 0 0 0 -0.318742 -5.34731 -3.23015 1.00794
H 10.3088 8.49733 1.08863 0 0 0 9.11902 -7.97357 -1.51758 1.00794
H 8.79418 7.57658 1.13871 0 0 0 -4.23894 -7.30158 1.22672 1.00794
H 9.2756 4.70817 18.269 0 0 0 2.62243 -3.38534 4.97406 1.00794
H 10.4321 4.79072 16.9383 0 0 0 5.83241 9.90245 3.86699 1.00794
H 9.22208 6.0604 17.1224 0 0 0 -3.12693 2.12085 -2.6029 1.00794
H 9.48929 6.19953 3.65575 0 0 0 3.77233 -0.864841 -3.59055 1.00794
H 8.38668 7.3401 4.46261 0 0 0 0.639361 4.70959 6.3188 1.00794
H 8.32803 5.616 4.86089 0 0 0 6.03875 -7.3693 4.59308 1.00794
H 9.54466 6.04585 13.5271 0 0 0 3.66181 -0.909187 -8.37111 1.00794
H 7.98524 6.73045 14.0543 0 0 0 -2.81658 2.31559 -0.161217 1.00794
H 9.48109 7.65425 14.2681 0 0 0 0.726152 1.5256 3.35604 1.00794
H 8.92827 10.1003 12.8612 0 0 0 6.30332 1.11103 1.87573 1.00794
H 7.26666 9.5172 13.0312 0 0 0 -5.4104 -2.23639 2.25363 1.00794
H 7.82676 10.1468 11.4689 0 0 0 -0.218304 -1.7223 -2.37273 1.00794
H 3.09181 11.3199 5.04437 0 0 0 2.94078 -8.76148 8.46364 1.00794
H 3.04804 12.1466 3.47207 0 0 0 28.0531 -0.195263 -2.73912 1.00794
H 4.47423 12.2611 4.48705 0 0 0 -4.09559 -3.81101 0.394305 1.00794
H 9.4126 8.84952 6.70546 0 0 0 4.32195 -2.23046 -11.2818 1.00794
H 10.9762 8.44931 7.43135 0 0 0 -6.42448 -3.80435 8.494 1.00794
H 9.50726 7.68895 8.05949 0 0 0 21.1746 -6.27746 0.364517 1.00794
H 8.56221 10.3864 8.01829 0 0 0 2.39327 4.2418 -2.12508 1.00794
H 8.80145 9.44619 9.50489 0 0 0 -0.134149 -5.24307 -1.62964 1.00794
H 7.41689 10.5475 9.36173 0 0 0 11.4332 -9.57207 -8.62623 1.00794
H 5.57506 10.3021 10.3241 0 0 0 -4.19923 0.471471 -0.504764 1.00794
H 4.46305 9.66546 11.5377 0 0 0 -1.4345 -3.20057 0.519062 1.00794
H 4.709 11.4218 11.41 0 0 0 1.94577 4.29868 1.62742 1.00794
C -5.56725 10.786 10.2465 0 0 0 -2.35247 -8.13213 2.53777 12.0107
C 1.907 0.43181 8.62444 0 0 0 0.227848 -4.19291 2.11196 12.0107
C 2.04941 2.5973 6.14525 0 0 0 5.44022 5.83614 -4.96867 12.0107
C -0.17356 1.77389 17.8898 0 0 0 11.156 0.0681136 0.898537 12.0107
C -3.65197 8.14991 3.11179 0 0 0 -6.78523 2.12335 -4.35974 12.0107
C -1.66975 8.17068 0.24199 0 0 0 1.28178 3.11167 -14.2099 12.0107
C 0.74772 2.38113 12.0758 0 0 0 -13.1468 -4.63244 -2.33025 12.0107
C 1.519 2.86025 15.2361 0 0 0 8.25771 1.08396 -8.86195 12.0107
C 12.1441 5.83651 11.3974 0 0 0 0.9453 -8.94488 4.01664 12.0107
C -2.16864 6.80478 13.8482 0 0 0 -0.973186 0.368549 4.13174 12.0107
C 8.40912 9.95101 2.74521 0 0 0 4.66328 -10.3701 -7.6458 12.0107
C -4.8108 10.8373 1.05735 0 0 0 7.8668 -5.40742 3.21349 12.0107
C -6.11133 10.5035 4.70253 0 0 0 6.78292 0.451466 -4.4646 12.0107
C -4.96488 9.01002 13.7941 0 0 0 -5.5641 -3.64092 -2.01737 12.0107
C -1.1313 12.0473 2.0549 0 0 0 -7.00449 -0.283147 5.80071 12.0107
C -1.57016 12.563 17.5488 0 0 0 -5.9678 -7.32129 -4.37434 12.0107
C 5.74234 2.25471 2.93894 0 0 0 -2.44754 0.372771 7.66279 12.0107
C 7.47122 4.68631 1.89454 0 0 0 -2.7112 11.6776 4.54906 12.0107
C 6.01759 6.22254 17.74 0 0 0 4.75027 -0.0600682 -8.35022 12.0107
C 5.72416 6.0598 5.18867 0 0 0 3.35415 4.13954 -3.24185 12.0107
C 2.00495 5.29447 10.0066 0 0 0 10.8739 -7.54525 -7.4664 12.0107
C 2.94526 5.41869 13.0318 0 0 0 -9.97576 -5.41142 2.89342 12.0107
C -0.51044 8.8449 3.61013 0 0 0 2.17163 1.61027 -3.15915 12.0107
C -2.62262 11.3977 5.8054 0 0 0 3.36016 -0.80666 -4.94481 12.0107
C -0.80726 12.4792 8.98887 0 0 0 0.619375 3.88925 5.42648 12.0107
C 2.98623 7.48239 16.72 0 0 0 1.9903 2.45647 -2.42556 12.0107
C 0.92535 8.53635 14.4194 0 0 0 -11.8197 0.802886 -5.49288 12.0107
C 15.011 0.42645 1.91191 0 0 0 1.02604 -2.39782 7.64955 12.0107
C 8.7198 2.77547 4.58817 0 0 0 -3.33836 3.76857 7.98344 12.0107
C 14.7335 0.48454 9.05557 0 0 0 4.83176 5.80537 8.80861 12.0107
C 8.82416 3.82175 9.20629 0 0 0 -7.98 10.3657 -6.84702 12.0107
C 8.51314 3.72628 12.3355 0 0 0 4.50713 5.27913 5.8958 12.0107
C 11.0511 2.2565 0.25921 0 0 0 -10.4867 -1.25774 6.66813 12.0107
C 13.3097 3.9415 1.25022 0 0 0 18.6691 6.75796 1.58367 12.0107
C 12.5027 6.88208 17.5901 0 0 0 -1.53806 3.19951 -4.31596 12.0107
C 9.66857 7.81441 0.51863 0 0 0 -3.92441 3.51388 -6.93323 12.0107
C 9.89683 5.39172 17.682 0 0 0 -9.64288 7.09443 -5.49105 12.0107
C 9.00028 6.44164 4.61003 0 0 0 -3.11526 7.09631 -5.26306 12.0107
C 8.95371 6.96591 13.5929 0 0 0 -0.289688 3.34962 8.10278 12.0107
C 8.12425 9.55739 12.3419 0 0 0 -3.01795 3.80034 10.3986 12.0107
C 3.67632 11.5836 4.15866 0 0 0 -6.53678 2.85079 5.86917 12.0107
C 9.99919 8.03785 7.15279 0 0 0 4.87504 1.06204 -7.79483 12.0107
C 8.04669 9.83452 8.81276 0 0 0 -0.839227 6.65781 6.4186 12.0107
C 4.62737 10.4896 10.8352 0 0 0 5.23777 -3.10933 5.76562 12.0107
O -0.83078 3.11003 5.73003 0 0 0 -3.01019 37.4317 1.361 15.9994
O 2.8156 0.73477 13.3568 0 0 0 -50.3083 8.21694 6.91634 15.9994
O -1.32328 3.49575 3.13982 0 0 0 -68.2922 4.16935 -39.6846 15.9994
O -0.96257 5.89504 2.01598 0 0 0 -21.3797 45.8306 31.593 15.9994
O 0.06492 3.29477 8.15172 0 0 0 43.8718 -21.2577 32.7517 15.9994
O -2.62472 6.72647 5.44901 0 0 0 15.7287 -59.0808 -30.6954 15.9994
O -0.94834 5.5415 7.13706 0 0 0 56.9699 -22.753 -54.6771 15.9994
O -1.0732 3.79258 16.2067 0 0 0 -31.8554 28.7641 10.0377 15.9994
O 0.08028 5.14668 14.2666 0 0 0 70.5601 38.1105 -24.9363 15.9994
O -7.82095 12.5119 3.78733 0 0 0 -47.1788 7.25322 28.1355 15.9994
O 2.18938 0.42654 1.40333 0 0 0 -51.1719 53.0361 -36.9996 15.9994
O -4.55329 8.0409 9.56928 0 0 0 -56.3103 59.8161 -23.5613 15.9994
O -2.46928 7.38768 8.15116 0 0 0 -12.0142 -73.1066 34.7112 15.9994
O -2.9521 9.94739 8.40981 0 0 0 40.131 53.404 6.40072 15.9994
O -4.76715 11.6834 7.61188 0 0 0 -36.822 32.6993 -43.2155 15.9994
O -6.73277 11.4815 18.1225 0 0 0 -55.278 -3.78901 51.0884 15.9994
O -6.38861 11.9759 15.5274 0 0 0 -64.7439 31.359 -34.7611 15.9994
O -4.08954 11.7004 14.1576 0 0 0 67.2803 33.7854 -57.3776 15.9994
O 4.65393 0.61833 9.69851 0 0 0 57.3649 -51.5367 -7.80152 15.9994
O 3.54718 2.36506 11.3646 0 0 0 -8.72671 61.2479 28.99 15.9994
O 4.30149 1.34092 15.4453 0 0 0 18.3899 -4.32043 3.32311 15.9994
O 6.46672 2.44415 16.4831 0 0 0 44.5901 24.8168 -49.4534 15.9994
O 6.24053 2.23032 11.0975 0 0 0 81.0556 -24.7891 -57.9766 15.9994
O 7.41421 1.33805 13.3305 0 0 0 -79.9041 -6.64492 50.8866 15.9994
O 6.8422 2.34741 0.33405 0 0 0 36.0532 -22.0874 47.3409 15.9994
O 0.85606 4.81213 3.73896 0 0 0 16.869 -56.4567 43.7698 15.9994
O 4.84113 4.11096 1.08227 0 0 0 -46.0346 -50.2226 26.0849 15.9994
O 4.69629 3.19584 9.12827 0 0 0 -74.9926 -17.9127 -49.3301 15.9994
O -0.83405 5.21314 9.77452 0 0 0 -45.0213 0.266723 38.1906 15.9994
O -0.01331 6.35474 11.9431 0 0 0 21.3884 74.4757 28.1059 15.9994
O 2.94072 5.59374 5.15979 0 0 0 25.1441 -72.3736 -0.133484 15.9994
O 4.23626 5.24305 7.5014 0 0 0 -72.8918 -2.17487 16.9463 15.9994
O 4.68844 4.07432 15.5186 0 0 0 -45.0356 30.4832 8.47431 15.9994
O 5.90252 3.60119 13.2906 0 0 0 -62.1806 -6.48999 -36.0971 15.9994
O 1.18802 5.22056 16.6561 0 0 0 -18.5355 -22.6326 24.9871 15.9994
O 3.28359 5.22858 18.3769 0 0 0 -11.1532 -55.867 -10.5648 15.9994
O 0.69289 6.59435 0.08781 0 0 0 39.8596 54.7444 41.4222 15.9994
O 5.41636 6.19954 13.9831 0 0 0 23.3182 59.7831 13.3888 15.9994
O 2.00857 7.0118 3.01678 0 0 0 -70.0516 9.63571 -42.7956 15.9994
O 4.07934 6.72809 1.39332 0 0 0 91.8261 1.77321 24.292 15.9994
O 0.87093 11.2437 3.86049 0 0 0 36.1172 36.2392 66.1467 15.9994
O 2.39713 8.82363 1.11911 0 0 0 -49.5142 -36.4482 -17.05 15.9994
O 1.56759 11.3721 1.24148 0 0 0 56.8627 69.4758 -19.9449 15.9994
O 0.46829 7.60726 9.66607 0 0 0 -64.9507 48.2171 32.9283 15.9994
O -2.20769 8.70494 10.5743 0 0 0 32.3849 -73.4255 28.39 15.9994
O -2.39891 9.95557 12.9441 0 0 0 62.3463 -19.1955 45.1836 15.9994
O 3.64868 8.17902 13.3743 0 0 0 45.0563 35.6913 -11.2811 15.9994
O -0.12808 10.0491 11.5347 0 0 0 33.3353 -81.4875 -17.8989 15.9994
O 2.22189 10.3801 12.7745 0 0 0 80.108 38.0552 -5.5569 15.9994
O 0.56545 12.4592 12.3614 0 0 0 9.91502 59.1596 -44.2312 15.9994
O 10.0534 0.97877 2.7437 0 0 0 20.979 37.0402 -76.6438 15.9994
O 13.824 2.23498 17.1574 0 0 0 -39.2457 85.4347 1.51516 15.9994
O 12.821 0.02825 0.15244 0 0 0 -86.7375 -54.8188 32.7152 15.9994
O 10.1845 1.60689 8.09062 0 0 0 43.2475 -29.8423 -32.3806 15.9994
O 13.8342 2.05735 4.54565 0 0 0 -29.1598 -31.707 -57.86 15.9994
O 11.2717 1.65993 5.00636 0 0 0 -44.2402 -61.5729 32.9132 15.9994
O 13.0026 1.05904 6.89876 0 0 0 -41.3035 30.7249 70.79 15.9994
O 15.5064 1.28964 15.3268 0 0 0 62.7372 9.62251 -25.8032 15.9994
O 9.68426 0.84015 14.7735 0 0 0 57.1777 -30.1783 -26.7316 15.9994
O 11.4869 0.85387 16.7308 0 0 0 26.2345 -65.183 5.36235 15.9994
O 9.06017 2.09185 17.0242 0 0 0 25.9833 61.0079 57.8328 15.9994
O 10.848 2.22579 10.6065 0 0 0 -68.445 -51.9215 26.0719 15.9994
O 11.0308 3.47391 3.07264 0 0 0 -32.1736 32.9805 7.51723 15.9994
O 12.7695 5.38694 3.60784 0 0 0 53.167 -60.5669 34.1761 15.9994
O 11.0491 5.61925 1.52354 0 0 0 -42.1579 45.7607 38.2622 15.9994
O 11.6187 3.77829 8.67458 0 0 0 41.2169 9.01922 48.8813 15.9994
O 12.6394 3.61553 6.24091 0 0 0 56.791 50.0585 -39.5959 15.9994
O 5.99407 5.44345 9.57707 0 0 0 59.5821 -47.1442 32.7623 15.9994
O 4.88707 6.94337 11.4633 0 0 0 -69.237 30.1018 -34.3375 15.9994
O 11.6701 7.19538 5.20676 0 0 0 -8.00606 70.4769 8.06761 15.9994
O 10.5558 5.22216 6.66031 0 0 0 -50.059 -21.7553 4.50069 15.9994
O 10.8991 3.10723 15.4645 0 0 0 -32.7838 56.4088 25.2882 15.9994
O 11.8141 2.89813 12.9749 0 0 0 -63.6676 -5.95655 -5.76121 15.9994
O 10.0676 7.83505 11.0578 0 0 0 21.441 80.1468 3.95453 15.9994
O 7.53544 7.00218 11.0635 0 0 0 49.3308 -56.2512 0.644914 15.9994
O 3.97705 8.66995 3.25319 0 0 0 0.527785 -27.4625 76.2129 15.9994
O 4.8564 10.5933 1.79064 0 0 0 -4.34625 -47.8853 -37.9271 15.9994
O 8.26422 10.6415 16.3835 0 0 0 -32.9625 10.1051 -78.9028 15.9994
O 6.636 11.4247 18.2899 0 0 0 55.6935 66.2218 -8.03996 15.9994
O 5.84208 8.0761 9.26891 0 0 0 -35.3853 27.9012 -14.1362 15.9994
O 2.6849 9.12327 9.1648 0 0 0 59.6367 -61.633 17.1718 15.9994
O 3.6608 11.4475 8.2877 0 0 0 -56.8765 -10.0422 -56.6207 15.9994
O 1.92871 11.3557 10.3548 0 0 0 -5.69057 56.945 -46.6459 15.9994
O 8.04683 10.7355 5.54876 0 0 0 45.2897 2.04399 58.3593 15.9994
O 5.89243 10.0162 4.31945 0 0 0 47.0151 -19.8273 -66.6564 15.9994
O 6.28227 9.04359 6.73392 0 0 0 -50.5298 -52.3739 -18.7464 15.9994
O 5.73765 11.608 6.55994 0 0 0 8.03491 66.4775 -42.9224 15.9994
O 3.32077 10.0487 15.1358 0 0 0 -42.1597 30.3915 -9.85585 15.9994
O 5.67506 9.70553 16.4845 0 0 0 -8.15469 -53.6763 -34.0922 15.9994
O 4.8106 12.0681 15.8617 0 0 0 -25.3835 58.6207 51.9484 15.9994
O 3.4657 10.6023 17.7157 0 0 0 23.4352 75.3706 35.8805 15.9994
371
Timestep=100 Time=100.000000 pbc="T T T" Lattice="16.8597 0 0 -8.85103 12.6095 0 0.45889 0.205421 18.6403" Potential_energy=111.06332494291792 Temperature=0 Stress="15091.584685338134 1571.742961567634 1802.5210345873215 1571.742961567634 11838.595173769258 829.5032937544956 1802.5210345873215 829.5032937544956 17979.264009599196" Properties=species:S:1:pos:R:3:vel:R:3:forces:R:3:mass:R:1
Si 2.04123 0.385444 2.95871 0 0 0 -0.672745 -0.5364 0.134636 28.0855
Si -1.46665 2.59838 4.35529 0 0 0 0.267711 0.0283031 0.438531 28.0855
Si -5.27893 12.1647 9.07971 0 0 0 0.202071 0.713184 -0.562959 28.0855
Si 0.175282 2.48973 6.74857 0 0 0 -0.472325 0.455741 -0.106508 28.0855
Si 3.97533 0.316164 14.6879 0 0 0 0.087087 -1.24049 0.10461 28.0855
Si 15.3498 2.33481 16.7764 0 0 0 1.71489 -0.0433765 0.208968 28.0855
Si 2.94622 1.54562 12.2454 0 0 0 -0.464477 -1.11183 0.581765 28.0855
Si -0.593234 4.94619 3.00588 0 0 0 0.315255 -0.254493 -0.0255989 28.0855
Si -3.97832 6.64598 4.70245 0 0 0 -0.679889 0.712588 0.106416 28.0855
Si -0.972567 6.59123 0.654456 0 0 0 0.406498 -1.18223 0.861989 28.0855
Si -0.924488 4.58348 8.37866 0 0 0 -0.189307 0.0141016 -1.30535 28.0855
Si 11.2797 7.28022 10.475 0 0 0 0.258572 0.198949 -0.445535 28.0855
Si -1.81265 6.98093 6.94842 0 0 0 -0.159991 0.918796 -0.185269 28.0855
Si 0.305464 4.25477 15.4868 0 0 0 -0.00615548 -0.532004 0.282385 28.0855
Si -0.878828 5.66763 13.177 0 0 0 -0.0935727 -0.295495 0.612152 28.0855
Si 8.94767 10.8005 4.5522 0 0 0 -0.487057 0.392971 -0.657737 28.0855
Si -6.37799 12.1947 0.116916 0 0 0 -0.0647875 1.11022 0.883371 28.0855
Si -3.00046 8.49334 9.40228 0 0 0 0.476877 1.72475 0.183036 28.0855
Si -3.65205 10.3865 7.28595 0 0 0 -0.0299454 1.1263 -0.168199 28.0855
Si -6.88027 11.0521 16.2032 0 0 0 -0.172265 -0.222046 0.80964 28.0855
Si -3.35229 10.3876 14.1048 0 0 0 0.431034 0.487881 -0.272294 28.0855
Si 0.394446 12.1702 2.41673 0 0 0 -1.60607 0.015894 1.24465 28.0855
Si 7.81642 2.07446 17.6213 0 0 0 -2.06523 1.16409 3.03622 28.0855
Si 8.69422 0.679559 7.6777 0 0 0 -0.330932 -0.400308 0.241383 28.0855
Si 5.16277 1.72795 10.2867 0 0 0 0.381585 -0.125641 1.1667 28.0855
Si 8.79012 0.414133 13.8918 0 0 0 -0.139602 1.50631 1.54015 28.0855
Si 5.13221 2.54335 16.4135 0 0 0 -0.150749 -0.963784 0.341372 28.0855
Si 7.0066 2.41861 12.5459 0 0 0 0.147007 0.575333 0.668323 28.0855
Si 6.08892 3.6821 1.35789 0 0 0 -2.09717 2.59563 0.749938 28.0855
Si 1.86158 6.09624 4.24478 0 0 0 0.912907 -0.0209967 1.15589 28.0855
Si 4.53084 5.72371 18.5244 0 0 0 -1.26951 1.78751 -0.540295 28.0855
Si 5.3414 4.21299 8.57997 0 0 0 0.25312 0.600844 0.318502 28.0855
Si 0.207281 6.23739 10.4283 0 0 0 0.153596 -0.0169268 0.220926 28.0855
Si 4.17114 5.63975 6.13182 0 0 0 0.834065 0.740759 0.282608 28.0855
Si 5.81141 4.44541 14.2522 0 0 0 -0.0829115 0.365492 -0.58759 28.0855
Si 1.70811 6.11961 17.5286 0 0 0 -0.0723736 -0.0419799 0.41309 28.0855
Si 4.49344 6.96261 13.0919 0 0 0 -0.0532805 -0.250625 0.684236 28.0855
Si 2.95804 7.6937 1.88316 0 0 0 -0.510259 0.816047 1.53467 28.0855
Si 0.700985 10.0998 4.63855 0 0 0 0.158427 0.0694078 -0.424765 28.0855
Si 1.81049 10.1876 0.250553 0 0 0 -0.645318 0.892957 -0.228663 28.0855
Si 1.428 8.34282 8.60537 0 0 0 0.520487 0.305833 0.954918 28.0855
Si -1.51169 9.89875 11.6733 0 0 0 0.20454 0.411971 -0.392212 28.0855
Si 2.77781 9.4535 13.93 0 0 0 0.85115 -0.107979 -0.748532 28.0855
Si 1.31681 11.2041 11.7942 0 0 0 -0.267115 -0.151914 0.197452 28.0855
Si 5.58789 11.6557 0.574262 0 0 0 0.801444 1.24278 -1.08951 28.0855
Si 10.0688 2.38367 3.50538 0 0 0 0.878359 0.184915 1.65004 28.0855
Si 12.7171 1.31327 17.9105 0 0 0 -0.30381 2.99516 -1.7665 28.0855
Si 4.38199 12.2589 7.15614 0 0 0 0.286328 0.00717806 1.63269 28.0855
Si 10.5854 2.44661 9.13152 0 0 0 -0.196859 -0.0982265 -0.0493462 28.0855
Si 12.6043 1.89263 5.24497 0 0 0 0.407493 -0.376631 -0.136341 28.0855
Si 5.85564 12.6806 14.8997 0 0 0 0.96813 -0.616218 0.105593 28.0855
Si 10.5068 2.03379 16.0222 0 0 0 -0.817142 1.89944 5.47086 28.0855
Si 12.1736 2.1736 11.6696 0 0 0 -0.0201558 1.08854 0.215747 28.0855
Si 11.5069 4.9693 2.52361 0 0 0 0.490552 -0.350669 1.6095 28.0855
Si 10.4907 6.68944 0.269103 0 0 0 -0.212774 0.477862 -1.30042 28.0855
Si 11.9349 4.198 7.18388 0 0 0 -0.554654 -0.513304 0.0225592 28.0855
Si 5.85069 6.59662 10.3281 0 0 0 -0.0396849 0.595093 -0.486482 28.0855
Si 10.3265 6.47382 6.17606 0 0 0 0.744944 0.483954 0.173596 28.0855
Si 12.3733 3.59098 14.2651 0 0 0 -0.513695 0.301592 1.89703 28.0855
Si 8.49634 7.43835 11.8029 0 0 0 0.0588724 0.520805 0.733922 28.0855
Si 4.74356 9.9111 2.92804 0 0 0 -0.531917 -0.186837 -0.486488 28.0855
Si 7.11695 10.1456 16.9353 0 0 0 -0.599702 0.878529 -0.115926 28.0855
Si 6.44921 8.39549 7.90254 0 0 0 0.00262107 -0.161659 -0.144867 28.0855
Si 3.19212 10.5507 9.53517 0 0 0 0.0329214 0.145768 0.870355 28.0855
Si 6.19711 10.2705 5.6073 0 0 0 -0.212294 -0.346589 -0.840465 28.0855
Si 4.17264 10.5737 16.3248 0 0 0 -0.239063 -0.0572562 0.197432 28.0855
H -5.41291 12.8246 3.39093 0 0 0 -0.520319 -0.384876 -0.892656 1.00794
H 1.7651 1.7982 2.65555 0 0 0 1.63168 -0.314844 -0.992859 1.00794
H -0.269501 1.1105 6.97349 0 0 0 -0.144444 0.00826834 0.357046 1.00794
H 2.8797 0.126874 11.9056 0 0 0 0.252244 -0.292726 -1.17095 1.00794