362
Timestep=0 Time=0.000000 pbc="T T T" Lattice="17.1417 0 0 -8.38196 12.8251 0 0.030516 0.302718 17.5867" Potential_energy=1448.441587423617 Temperature=0 Stress="95672.77087311048 -2257.949960706708 -565.4721840512063 -2257.949960706708 100926.86360767232 3737.1365783120873 -565.4721840512063 3737.1365783120873 98600.98490849916" Properties=species:S:1:pos:R:3:vel:R:3:forces:R:3:mass:R:1
Si 3.86508 0.28608 2.48489 0 0 0 -31.1546 -32.1541 29.0249 28.0855
Si -0.26072 3.27896 5.18015 0 0 0 12.4441 -24.9404 29.0155 28.0855
Si -5.18727 12.851 7.92715 0 0 0 17.743 -18.215 -7.5178 28.0855
Si 14.8519 1.37137 10.3607 0 0 0 20.5877 55.3334 -78.1277 28.0855
Si 2.52982 2.36554 6.05968 0 0 0 -12.8458 -5.77664 53.7423 28.0855
Si -6.11916 12.3672 13.581 0 0 0 30.8287 -16.3099 -12.8144 28.0855
Si 14.8671 2.00058 15.0278 0 0 0 -9.12638 1.14307 -24.6503 28.0855
Si 0.25193 1.32857 12.0371 0 0 0 43.6488 53.1264 -52.018 28.0855
Si -0.3795 3.891 2.04498 0 0 0 6.95727 -29.474 -26.324 28.0855
Si -4.14759 6.83836 3.54987 0 0 0 23.2099 -6.92026 39.3226 28.0855
Si -3.62459 5.75597 9.39349 0 0 0 49.6309 -32.6966 -29.2565 28.0855
Si 0.78359 4.16166 12.9573 0 0 0 35.2351 28.8988 -58.8839 28.0855
Si -2.74549 6.24331 15.351 0 0 0 34.5067 -26.3485 0.458875 28.0855
Si -2.40806 8.84252 1.88701 0 0 0 27.745 9.25359 18.6054 28.0855
Si -3.64489 11.2497 0.18345 0 0 0 -33.0274 -17.9826 -9.31453 28.0855
Si -4.47368 8.65337 9.53937 0 0 0 -13.308 -4.21805 -20.3094 28.0855
Si 8.28064 10.5741 9.77609 0 0 0 11.3961 10.4763 54.9775 28.0855
Si -6.42451 11.325 16.3686 0 0 0 1.91628 -55.0518 -66.2907 28.0855
Si 0.294592 12.6982 1.53405 0 0 0 -22.5744 22.1159 -9.32167 28.0855
Si 5.17829 2.49774 4.18445 0 0 0 10.5357 -9.98323 -7.01104 28.0855
Si 7.5279 2.46562 0.42897 0 0 0 -8.1312 -14.0077 -12.653 28.0855
Si 0.01969 12.6819 7.44547 0 0 0 -46.9487 36.5306 -36.1765 28.0855
Si 5.1054 2.24162 9.26919 0 0 0 27.9644 59.8489 23.1571 28.0855
Si 8.11398 1.97817 5.25461 0 0 0 23.7334 33.6762 65.8326 28.0855
Si -0.34497 12.8179 13.0091 0 0 0 34.1024 -57.3054 -46.9595 28.0855
Si 4.87739 2.8767 16.2555 0 0 0 -23.5213 -54.0601 7.03526 28.0855
Si 7.44268 2.3375 11.1256 0 0 0 -10.2702 11.5149 -33.9452 28.0855
Si 6.66677 4.53257 2.60555 0 0 0 -20.6482 28.8923 -25.819 28.0855
Si 2.80765 6.26371 4.457 0 0 0 -41.7171 -12.5743 30.0604 28.0855
Si 3.59541 6.5556 17.0032 0 0 0 16.3148 -10.0742 15.0797 28.0855
Si 6.10996 4.46611 7.46042 0 0 0 31.8013 47.8366 -49.6219 28.0855
Si 4.08091 6.81026 7.23529 0 0 0 -8.38422 20.3224 -2.13068 28.0855
Si 5.23144 4.56027 13.7501 0 0 0 51.8889 -52.9191 -43.2811 28.0855
Si 0.86607 6.22475 15.2982 0 0 0 -11.1113 22.927 8.4609 28.0855
Si 3.49104 6.44203 11.7916 0 0 0 25.8582 -23.5848 -42.4976 28.0855
Si 3.4653 8.03459 2.02686 0 0 0 -8.6958 27.9452 60.7595 28.0855
Si -0.9604 10.8873 3.92868 0 0 0 -36.4713 45.7702 -0.977858 28.0855
Si 0.7686 10.8053 16.8066 0 0 0 9.64774 -2.45353 -20.8623 28.0855
Si 1.57616 7.909 8.47974 0 0 0 9.12551 8.54473 -2.59315 28.0855
Si 1.03309 10.0292 6.32372 0 0 0 33.5077 45.6639 10.4783 28.0855
Si 1.67819 8.50247 13.4531 0 0 0 21.9565 -14.9467 -2.23476 28.0855
Si -1.8557 11.3159 15.2994 0 0 0 0.268539 -49.3174 -19.7442 28.0855
Si 0.30772 10.4214 11.3544 0 0 0 31.6949 -45.8161 -24.7537 28.0855
Si 5.85233 12.6021 1.23075 0 0 0 66.9664 -5.66858 66.9243 28.0855
Si 10.4264 1.78466 3.12283 0 0 0 5.07497 -66.2947 29.7096 28.0855
Si 12.8228 2.53744 17.3597 0 0 0 16.6061 7.07683 7.87851 28.0855
Si 5.04136 12.0934 8.48639 0 0 0 36.8018 8.87541 -30.3097 28.0855
Si 9.96451 1.87403 9.36623 0 0 0 1.50277 -3.23302 6.12972 28.0855
Si 5.19317 12.4201 13.435 0 0 0 -43.3758 16.7574 -43.1545 28.0855
Si 10.0559 3.36787 16.2033 0 0 0 0.78043 -37.2868 -61.3497 28.0855
Si 12.0883 2.40867 11.1283 0 0 0 -43.478 -8.77217 -40.7386 28.0855
Si 11.8542 4.35056 1.79301 0 0 0 10.4787 2.38721 -28.0803 28.0855
Si 8.00605 6.6206 4.24039 0 0 0 -6.63577 10.9828 19.6825 28.0855
Si 10.3552 6.68468 0.32539 0 0 0 -1.77597 45.7516 -13.1756 28.0855
Si 11.8974 3.6929 7.82256 0 0 0 71.0509 -53.4268 -3.46019 28.0855
Si 8.62445 5.96806 8.49012 0 0 0 51.5742 8.59731 -23.9248 28.0855
Si 10.7271 7.29568 5.62676 0 0 0 0.856115 -14.7651 29.1619 28.0855
Si 11.3039 5.75477 14.5097 0 0 0 -7.73855 -47.8157 -51.4173 28.0855
Si 8.90087 8.75993 2.16581 0 0 0 42.3543 10.5635 -25.2745 28.0855
Si 5.25364 10.1811 2.95699 0 0 0 -13.6475 18.1451 49.6342 28.0855
Si 7.92152 10.8993 17.408 0 0 0 54.4251 -17.5426 -5.19769 28.0855
Si 8.7201 8.82456 7.14159 0 0 0 30.3801 -6.10775 15.2673 28.0855
Si 3.06035 10.2863 10.0872 0 0 0 13.5058 1.47555 -9.19027 28.0855
Si 7.18552 10.6335 5.19429 0 0 0 -11.1155 39.2569 37.2892 28.0855
Si 3.17799 10.6736 15.2096 0 0 0 -10.2801 -17.6599 31.5906 28.0855
Si 5.8301 10.029 11.6177 0 0 0 9.08345 6.15929 4.08993 28.0855
C 2.21617 0.84791 1.84062 0 0 0 -8.04615 2.06503 2.08933 12.0107
C -4.66856 11.9757 3.96034 0 0 0 -3.23768 -1.79821 3.81653 12.0107
C -0.38885 4.58303 6.51512 0 0 0 -12.3686 -1.78662 2.97049 12.0107
C 2.38521 3.56404 7.43926 0 0 0 0.451295 6.64997 10.0282 12.0107
C -0.64923 1.90888 15.9118 0 0 0 7.9736 4.62372 3.52627 12.0107
C -2.79057 6.51141 4.7606 0 0 0 5.40829 5.91826 4.03409 12.0107
C -0.24905 5.17193 11.7819 0 0 0 -5.09092 1.94261 -4.19681 12.0107
C -1.19386 7.68671 1.12271 0 0 0 5.66443 -11.4286 -5.07546 12.0107
C -3.54802 8.92504 7.93714 0 0 0 -1.16112 5.78869 -3.85362 12.0107
C -4.12642 9.84599 10.9363 0 0 0 0.187304 8.18337 0.439273 12.0107
C 9.43724 10.0406 11.1141 0 0 0 6.2987 -0.231725 3.82067 12.0107
C -1.76139 12.402 7.7659 0 0 0 -4.03332 -2.92354 -3.56333 12.0107
C 4.27023 3.48443 10.3473 0 0 0 5.74979 7.45035 10.8425 12.0107
C 1.22507 1.72153 10.5151 0 0 0 5.80572 -0.222693 -9.07395 12.0107
C 3.71421 0.51325 12.9628 0 0 0 10.1497 4.53757 -4.40455 12.0107
C 1.22935 4.62561 1.48275 0 0 0 5.95285 -5.02059 -4.89499 12.0107
C 1.06751 6.90812 4.55366 0 0 0 -8.43244 0.696465 -3.648 12.0107
C 5.9794 5.76355 1.4384 0 0 0 5.36609 -2.0037 2.08278 12.0107
C 5.05728 7.2247 16.0774 0 0 0 -2.74237 -0.922063 -4.15766 12.0107
C 6.92157 5.34055 13.876 0 0 0 6.13107 -3.5857 -6.95462 12.0107
C 2.15895 9.30264 2.35105 0 0 0 -11.8398 6.76646 -0.431102 12.0107
C -0.74094 9.56467 10.0975 0 0 0 -1.26431 -0.252458 -3.97509 12.0107
C 15.1405 0.67456 2.56813 0 0 0 -1.26221 -4.51717 0.130694 12.0107
C 15.526 2.1062 5.67168 0 0 0 1.91432 8.14366 1.70928 12.0107
C 11.6599 0.80886 4.09157 0 0 0 -2.24658 -9.15756 -0.990045 12.0107
C 12.8466 0.34004 7.10765 0 0 0 3.97506 1.4195 -5.59049 12.0107
C 1.48059 12.8532 13.1853 0 0 0 11.4373 -1.02465 -10.6553 12.0107
C 9.20991 2.60654 14.7664 0 0 0 -9.22346 5.33143 -0.752334 12.0107
C 5.10458 8.23506 7.76215 0 0 0 11.0897 8.88701 5.29248 12.0107
C 11.9023 7.82978 17.2182 0 0 0 -2.19774 0.11515 2.74546 12.0107
C 8.79332 6.79294 16.9549 0 0 0 0.8864 0.235856 1.45024 12.0107
C 9.11921 6.16971 10.2642 0 0 0 6.52031 0.834225 4.49283 12.0107
C 11.7574 3.80952 5.98539 0 0 0 3.7411 -2.99438 -10.7845 12.0107
C 11.5014 4.80815 12.9488 0 0 0 -0.352007 13.1717 11.5908 12.0107
C 10.3499 7.29724 14.044 0 0 0 6.72825 -0.125277 -24.815 12.0107
C 9.91794 10.1101 2.89694 0 0 0 8.45115 0.137818 2.37742 12.0107
C 2.78004 10.1595 5.81512 0 0 0 -1.78848 7.86297 21.1085 12.0107
C 8.58474 11.8413 5.40232 0 0 0 3.13678 8.18793 8.31437 12.0107
C 4.17313 10.4036 16.7135 0 0 0 6.50053 2.69071 9.84694 12.0107
C 7.57064 10.1544 15.7445 0 0 0 9.9552 -1.75518 -14.3304 12.0107
C 6.33341 8.51408 12.5443 0 0 0 1.15852 0.861203 3.11736 12.0107
H -4.34631 11.7915 7.33474 0 0 0 -11.7135 22.2978 0.472985 1.00794
H 15.6049 2.08813 9.30318 0 0 0 -2.16687 -3.87528 1.94366 1.00794
H -5.98998 10.9185 13.2777 0 0 0 3.58447 8.18724 1.76946 1.00794
H -1.55063 4.62499 1.49151 0 0 0 7.54374 -2.75906 -1.3892 1.00794
H -0.40772 2.4979 1.53595 0 0 0 3.85742 12.3832 -1.31716 1.00794
H 13.9586 4.81972 10.4489 0 0 0 -0.848116 3.56193 -5.22227 1.00794
H -2.51297 6.04466 8.44119 0 0 0 -4.01849 -1.49933 6.78148 1.00794
H 14.805 2.8742 13.8322 0 0 0 9.65732 -2.97819 2.51159 1.00794
H 2.19818 4.01679 12.5377 0 0 0 -11.0957 -2.45547 2.3544 1.00794
H -1.94978 5.48645 14.3447 0 0 0 -6.80758 3.73953 5.12923 1.00794
H -2.53489 5.64585 16.6998 0 0 0 -3.36629 -0.399016 -7.88459 1.00794
H 11.2088 8.67117 9.22941 0 0 0 9.34796 1.16624 0.197023 1.00794
H 8.31536 12.0369 9.53652 0 0 0 2.35662 -8.53435 7.28164 1.00794
H -6.23643 12.2402 8.78089 0 0 0 7.7304 -5.23471 -8.0794 1.00794
H 10.6003 10.0249 15.6752 0 0 0 4.50223 8.53412 5.97617 1.00794
H 3.82659 2.94263 17.2973 0 0 0 6.59253 -2.18156 -3.71788 1.00794
H 4.81335 1.63101 15.4599 0 0 0 -1.55923 2.88666 4.82368 1.00794
H 2.83135 4.78521 4.48085 0 0 0 -1.65164 9.56521 -1.42303 1.00794
H 3.75161 4.94348 0.06736 0 0 0 -5.74639 1.19387 -10.5731 1.00794
H 8.33676 3.11228 6.16914 0 0 0 6.0708 -4.782 -2.97221 1.00794
H 6.51889 4.47412 6.05458 0 0 0 -0.365446 4.60552 3.16906 1.00794
H 7.02532 3.70618 11.4594 0 0 0 -2.66651 -7.70225 -6.88815 1.00794
H 5.26822 3.28435 12.998 0 0 0 7.67107 8.26601 12.3919 1.00794
H -0.23299 6.2356 16.2834 0 0 0 20.2774 -0.0214365 5.37771 1.00794
H 2.58025 5.60182 10.9879 0 0 0 4.59251 6.80038 1.13709 1.00794
H -1.93629 11.6492 4.714 0 0 0 14.6685 -5.93047 -1.69979 1.00794
H 1.25686 9.49736 17.2744 0 0 0 7.70046 5.95084 -5.61587 1.00794
H 0.56499 7.22569 9.29826 0 0 0 2.38486 -0.471287 0.608226 1.00794
H -2.61393 10.3464 14.4815 0 0 0 -0.198687 2.50538 1.63761 1.00794
H 12.9542 0.46988 12.4417 0 0 0 19.3794 -43.2647 26.5845 1.00794
H 11.6578 3.73582 10.6514 0 0 0 3.05032 -2.808 8.65086 1.00794
H 6.86536 6.768 5.15862 0 0 0 1.27122 -1.27149 -0.0632569 1.00794
H -2.30881 7.66786 15.3591 0 0 0 -1.73178 -6.28011 0.673812 1.00794
H 13.0061 2.7962 8.24492 0 0 0 -5.82459 6.21137 -6.68904 1.00794
H 9.67134 5.37174 7.64469 0 0 0 -10.4122 2.97482 6.84699 1.00794
H 4.54905 7.00727 10.9206 0 0 0 -9.01939 -3.20243 -0.700691 1.00794
H 11.4451 6.50277 6.63212 0 0 0 -1.73986 3.98797 -4.70806 1.00794
H 11.7151 2.13299 12.524 0 0 0 -0.750785 5.455 -3.31568 1.00794
H 4.32934 10.3041 4.075 0 0 0 51.174 -5.78202 -47.136 1.00794
H 5.93182 11.1166 5.81209 0 0 0 13.6565 -2.52307 -4.96839 1.00794
H 6.06598 11.1463 7.99903 0 0 0 -8.06444 4.8404 0.300408 1.00794
H 1.67787 1.3608 2.65274 0 0 0 -1.93855 1.34134 3.92718 1.00794
H -6.78346 12.8357 1.48966 0 0 0 0.626492 -6.47981 1.47427 1.00794
H 2.33221 1.55633 1.00863 0 0 0 2.47545 1.97431 -2.77731 1.00794
H -3.87369 12.1776 4.68929 0 0 0 -10.1066 7.95658 2.45976 1.00794
H -4.60792 10.9143 3.68655 0 0 0 3.11853 -4.61585 -7.33708 1.00794
H -5.62936 12.1402 4.46604 0 0 0 -4.47488 4.05576 0.0561997 1.00794
H -0.48005 4.07829 7.48782 0 0 0 -1.91233 -1.92391 5.29379 1.00794
H -1.31923 5.14239 6.35744 0 0 0 3.61947 -2.91799 6.52734 1.00794
H 0.42251 5.30737 6.59048 0 0 0 -10.1932 -14.5863 2.39324 1.00794
H 2.19786 4.58574 7.10798 0 0 0 14.5638 -10.7887 -7.54105 1.00794
H 3.30373 3.59758 8.01774 0 0 0 -21.3343 1.39319 -41.9875 1.00794
H 1.56322 3.2649 8.10145 0 0 0 -0.996877 -3.16143 0.141996 1.00794
H 0.09158 1.2978 15.3851 0 0 0 -0.0790821 -5.24271 -7.65479 1.00794
H 16.3568 1.48723 16.9164 0 0 0 -1.83513 -1.11494 4.85547 1.00794
H -0.24018 2.92415 16.0127 0 0 0 0.641449 5.57157 2.34499 1.00794
H -2.00892 5.88366 4.31369 0 0 0 0.0566152 0.414433 -8.55795 1.00794
H -3.17348 5.99987 5.65444 0 0 0 -7.76536 2.55376 1.79472 1.00794
H -2.33545 7.45681 5.08907 0 0 0 1.532 7.01546 -0.0326691 1.00794
H -1.31171 5.09129 12.0532 0 0 0 -4.69676 -1.77987 3.07616 1.00794
H -0.13326 4.81682 10.7468 0 0 0 2.54334 -4.43992 -4.03495 1.00794
H 0.03064 6.23364 11.8069 0 0 0 4.48838 5.5015 2.80721 1.00794
H -1.7052 7.00107 0.43453 0 0 0 -4.69183 0.319318 -0.686065 1.00794
H -0.71625 7.07993 1.90381 0 0 0 0.971882 -0.624673 6.24027 1.00794
H -0.40983 8.20465 0.55848 0 0 0 -6.70421 0.178127 2.92172 1.00794
H -3.8159 8.13158 7.22375 0 0 0 -1.26851 -4.24004 -1.75685 1.00794
H -2.45759 8.91179 8.06088 0 0 0 4.69719 -1.38476 4.38786 1.00794
H -3.84122 9.88081 7.48179 0 0 0 2.47587 -14.5039 2.15524 1.00794
H -4.19406 10.8984 10.6219 0 0 0 -1.6028 3.70321 -7.88499 1.00794
H -3.13193 9.68643 11.3697 0 0 0 -4.26596 -7.39097 9.9751 1.00794
H -4.85632 9.6906 11.7431 0 0 0 2.57448 -7.17959 3.99488 1.00794
H 9.50475 8.94602 11.1737 0 0 0 -3.13324 -5.42621 -0.964033 1.00794
H 9.07923 10.4284 12.0773 0 0 0 -4.76937 0.0182202 4.59089 1.00794
H 10.4433 10.4374 10.9437 0 0 0 -4.53184 8.7569 -8.10927 1.00794
H -2.06149 11.517 7.1895 0 0 0 -0.531686 -5.64992 -2.0288 1.00794
H 6.03683 0.42466 7.39399 0 0 0 7.3552 1.23422 -11.2274 1.00794
H -1.99547 12.2359 8.82219 0 0 0 5.1222 -4.33354 9.03071 1.00794
H 4.06615 3.06338 11.3384 0 0 0 -6.31861 -6.93079 -6.30141 1.00794
H 3.33368 3.86506 9.93504 0 0 0 -4.59772 -0.972283 18.5145 1.00794
H 4.95138 4.33803 10.4791 0 0 0 4.92111 1.04539 -2.67449 1.00794
H 0.92496 2.70363 10.1229 0 0 0 -4.37167 3.26431 2.91572 1.00794
H 1.026 0.97392 9.7364 0 0 0 -6.39 1.20869 1.9629 1.00794
H 2.30344 1.7464 10.6962 0 0 0 0.138501 -4.30064 8.24104 1.00794
H 3.84876 0.36133 11.8817 0 0 0 -1.59822 -2.66216 -5.41952 1.00794
H -3.73898 13.0278 13.4595 0 0 0 1.73375 -5.39895 3.94659 1.00794
H 3.58706 1.5884 13.1534 0 0 0 -6.80869 3.88587 2.77097 1.00794
H 1.36487 4.35028 0.42579 0 0 0 -1.46756 -2.43183 -3.7005 1.00794
H 2.07753 4.20352 2.03949 0 0 0 2.29647 -4.97888 6.17763 1.00794
H 1.27422 5.71843 1.55389 0 0 0 -8.22846 6.59383 4.55305 1.00794
H 0.98272 7.91993 4.14387 0 0 0 -0.541709 -4.07188 2.31707 1.00794
H 0.65911 6.94031 5.56632 0 0 0 6.96523 15.3444 -8.63614 1.00794
H 0.42253 6.24922 3.9564 0 0 0 -1.05886 0.519611 -2.87526 1.00794
H 6.3035 6.78489 1.66387 0 0 0 5.84241 1.50781 1.40083 1.00794
H 4.89376 5.71154 1.5322 0 0 0 26.6948 -12.74 29.7796 1.00794
H 6.26399 5.51731 0.41098 0 0 0 1.61878 -6.75348 -0.515244 1.00794
H 4.72159 7.75196 15.176 0 0 0 -5.99995 0.391507 1.86248 1.00794
H 5.75746 6.43677 15.7939 0 0 0 -2.67766 0.609243 13.7638 1.00794
H 5.59253 7.92866 16.7242 0 0 0 1.28589 -1.61797 7.77427 1.00794
H 7.54971 5.05449 13.0211 0 0 0 2.83068 2.3895 -1.27096 1.00794
H 7.4251 5.02037 14.7972 0 0 0 -5.54282 7.41897 8.01528 1.00794
H 6.8573 6.43334 13.8929 0 0 0 0.689856 -1.22151 2.16278 1.00794
H 2.15899 9.63952 3.39211 0 0 0 1.17371 -0.972841 -4.49728 1.00794
H 1.1586 8.92337 2.11288 0 0 0 -2.73574 -5.12604 -1.79852 1.00794
H 2.34172 10.1849 1.72551 0 0 0 5.91054 2.4702 -1.37864 1.00794
H -0.98853 8.5326 10.3733 0 0 0 -0.370161 -6.16444 8.25901 1.00794
H -0.29612 9.57236 9.09805 0 0 0 -15.0602 21.394 9.5984 1.00794
H -1.6714 10.137 10.0241 0 0 0 6.36398 5.53433 -11.2426 1.00794
H 14.8745 1.73692 2.59676 0 0 0 -10.1611 3.92638 -2.05396 1.00794
H 16.2303 0.58783 2.49018 0 0 0 6.23262 -8.92844 -4.6881 1.00794
H 14.823 0.22459 3.51578 0 0 0 -11.8687 -17.895 -22.2414 1.00794
H 15.713 1.75293 6.69672 0 0 0 5.47008 -1.83847 4.77534 1.00794
H 15.3893 1.23974 5.02461 0 0 0 13.0505 19.7564 24.8705 1.00794
H 14.5851 2.67831 5.68339 0 0 0 -2.55352 4.52109 -3.31981 1.00794
H 12.5511 1.37741 4.37804 0 0 0 9.81901 2.13074 -9.89254 1.00794
H 3.59911 12.7791 3.48263 0 0 0 -0.863963 -1.6769 -0.233046 1.00794
H 11.1845 0.4248 5.00108 0 0 0 -13.4069 2.37341 -2.22181 1.00794
H 11.8648 0.7758 7.32597 0 0 0 -4.55244 -1.75515 3.25958 1.00794
H 4.36063 12.5247 6.22474 0 0 0 3.15754 -2.13109 3.42285 1.00794
H 13.5521 1.13489 6.85387 0 0 0 -1.88699 -5.32418 8.5078 1.00794
H 1.87261 11.8425 13.0608 0 0 0 0.281092 2.90852 3.139 1.00794
H 10.2554 0.42291 14.1182 0 0 0 4.80495 -5.55446 5.8909 1.00794
H 10.2601 0.60723 12.3432 0 0 0 -7.36535 -5.43098 1.68012 1.00794
H 9.86072 2.47125 13.8982 0 0 0 7.80237 16.6067 -0.308715 1.00794
H 8.38085 3.25768 14.4692 0 0 0 4.39347 -11.36 -3.29128 1.00794
H 8.77459 1.64305 15.0543 0 0 0 -2.60852 5.69765 18.8897 1.00794
H 5.47846 8.09435 8.78397 0 0 0 0.693417 -4.17777 7.25691 1.00794
H 4.56369 9.18286 7.72445 0 0 0 5.22194 -11.6061 4.10275 1.00794
H 5.96349 8.31484 7.08883 0 0 0 -17.3831 -9.32008 3.72796 1.00794
H 11.882 8.08922 16.1583 0 0 0 -4.07714 5.88195 0.491667 1.00794
H -4.3564 7.202 17.3942 0 0 0 -1.58081 -1.50023 10.288 1.00794
H -5.13291 8.4495 0.2055 0 0 0 0.95652 4.17092 1.47928 1.00794
H 8.8915 6.71694 15.8725 0 0 0 -7.39078 -3.33518 8.6686 1.00794
H 8.11818 7.62528 17.1884 0 0 0 -3.69857 2.17914 -2.15125 1.00794
H 8.32934 5.86277 17.3053 0 0 0 -0.312938 -0.837929 -0.557453 1.00794
H 9.29884 5.18032 10.706 0 0 0 0.547242 -5.62904 1.2223 1.00794
H 8.3277 6.67099 10.8402 0 0 0 -5.07522 2.42253 -0.0112498 1.00794
H 10.0453 6.75416 10.3489 0 0 0 5.33485 3.08152 -2.67722 1.00794
H 10.8443 4.3334 5.67493 0 0 0 -5.8475 0.606538 2.04728 1.00794
H 11.6952 2.78727 5.59541 0 0 0 -4.31755 12.0431 14.0331 1.00794
H 12.6214 4.29245 5.51326 0 0 0 4.64359 -0.316819 3.07288 1.00794
H 10.5813 4.32017 12.6078 0 0 0 -14.8247 4.89373 7.90618 1.00794
H 12.2825 4.05189 13.0959 0 0 0 9.84941 21.9033 27.0115 1.00794
H 11.8362 5.50338 12.1669 0 0 0 2.23617 5.39052 -3.64225 1.00794
H 10.2258 8.05792 14.8203 0 0 0 1.42358 -1.44082 2.34829 1.00794
H 9.35709 7.03526 13.6497 0 0 0 -4.22424 -4.04434 -2.67538 1.00794
H 10.9163 7.75427 13.217 0 0 0 0.626946 5.77528 -3.30154 1.00794
H 9.35271 11.0346 3.04687 0 0 0 -6.47654 2.86448 -7.20795 1.00794
H -6.42104 10.3163 2.17549 0 0 0 4.02809 2.83896 -3.39926 1.00794
H 10.3915 9.81388 3.83952 0 0 0 -0.993141 -6.79824 4.96834 1.00794
H 2.88869 10.9836 5.10259 0 0 0 -30.8122 17.0111 17.0955 1.00794
H 3.18705 9.24548 5.37357 0 0 0 -11.5699 -14.7007 8.24345 1.00794
H 3.37183 10.4092 6.70175 0 0 0 -9.68685 7.69312 -9.76282 1.00794
H 8.63364 12.6332 4.64785 0 0 0 -2.50003 -0.281023 -9.10944 1.00794
H 9.54749 11.3151 5.40586 0 0 0 3.31928 -3.71789 1.92687 1.00794
H 8.47632 12.3216 6.38605 0 0 0 -0.621564 1.74225 5.81389 1.00794
H 5.22868 10.2246 16.5145 0 0 0 -38.0683 15.2912 9.94959 1.00794
H 3.7814 9.5796 17.3099 0 0 0 4.70257 33.8482 -27.8958 1.00794
H 4.08919 11.3279 17.298 0 0 0 -4.36066 -0.0408963 -1.51704 1.00794
H 8.46887 9.61747 15.4069 0 0 0 -2.48616 -4.35262 -2.79751 1.00794
H 7.36013 10.9492 15.0158 0 0 0 0.795862 4.69646 -1.32375 1.00794
H 6.75046 9.43085 15.7233 0 0 0 27.8714 -14.1321 -12.2241 1.00794
H 6.43337 7.6457 11.8826 0 0 0 2.76103 -1.05441 -7.38011 1.00794
H 5.60315 8.2718 13.3273 0 0 0 -4.22017 6.55554 -3.71278 1.00794
H 7.30242 8.69816 13.0299 0 0 0 6.25522 1.5235 1.29898 1.00794
O 1.21411 2.51074 5.08383 0 0 0 4.82971 -17.9971 -58.9203 15.9994
O 2.48871 0.84501 6.70002 0 0 0 -53.0723 -30.2025 -37.4407 15.9994
O 15.8611 0.95026 11.576 0 0 0 -22.844 -59.0376 45.0282 15.9994
O -7.52208 12.8851 12.8775 0 0 0 -44.4709 -61.3563 5.03664 15.9994
O -0.55693 3.92109 3.69524 0 0 0 -47.5361 68.1067 7.29323 15.9994
O 0.19696 2.62322 13.043 0 0 0 -28.1521 -2.82869 53.8032 15.9994
O -3.67335 7.97675 2.47112 0 0 0 -60.8587 17.5591 -45.7623 15.9994
O -2.99005 9.88752 0.7733 0 0 0 36.118 -41.1891 -65.125 15.9994
O -3.60295 12.4269 1.28588 0 0 0 59.9404 51.5028 9.12668 15.9994
O -4.10803 7.1349 10.1318 0 0 0 -4.23717 17.3613 57.075 15.9994
O -5.16772 11.2621 17.3883 0 0 0 -23.8386 -34.3556 69.2807 15.9994
O -6.24312 12.4928 15.2294 0 0 0 9.63785 66.8287 15.7478 15.9994
O 4.74415 1.61372 2.90247 0 0 0 19.7393 21.2318 -73.4243 15.9994
O 3.939 2.53427 5.24427 0 0 0 16.677 46.7981 33.2055 15.9994
O 7.62203 0.86669 0.77689 0 0 0 -66.1312 -45.7348 -25.7013 15.9994
O 4.09956 1.00702 8.89176 0 0 0 -26.7756 -25.9059 66.0486 15.9994
O 6.52199 1.86043 4.88068 0 0 0 -28.9981 -78.8208 28.1367 15.9994
O 8.59043 0.59217 5.99167 0 0 0 42.7088 -39.9838 -42.9219 15.9994
O 6.36284 3.00015 16.9377 0 0 0 21.5004 51.0476 -47.9116 15.9994
O 6.39895 1.6373 10.0772 0 0 0 7.85116 -60.9963 -10.682 15.9994
O 7.45533 1.43007 12.4706 0 0 0 -22.8782 34.7046 66.2764 15.9994
O 5.51391 4.01013 3.66914 0 0 0 -37.0176 60.4102 14.9317 15.9994
O 7.23412 3.22342 1.82491 0 0 0 13.7333 -49.2993 60.753 15.9994
O 5.68677 2.94175 7.89761 0 0 0 3.21434 -47.4751 -57.1174 15.9994
O 3.81789 6.84218 5.62337 0 0 0 53.8867 48.8778 -37.4038 15.9994
O 4.80966 5.41848 7.67418 0 0 0 -46.0131 -31.7321 43.6409 15.9994
O 4.64748 4.16738 15.2455 0 0 0 -42.4013 37.6725 19.0032 15.9994
O 0.77931 4.82075 14.4648 0 0 0 -14.5658 -64.8094 47.7134 15.9994
O 2.29552 6.36225 16.0314 0 0 0 41.6177 -0.136937 -33.5094 15.9994
O 4.19387 5.60554 13.0162 0 0 0 -39.102 24.0126 63.5096 15.9994
O 3.45962 6.76221 3.04502 0 0 0 24.3915 -60.9708 -21.089 15.9994
O 3.19121 7.39966 0.54891 0 0 0 -71.1086 12.3046 -36.0993 15.9994
O -1.70104 9.69094 3.10426 0 0 0 -11.858 -48.711 40.3344 15.9994
O -0.23952 11.9465 2.8954 0 0 0 31.4436 41.6509 50.3559 15.9994
O 0.65428 11.5223 0.47663 0 0 0 34.3203 -24.2905 33.949 15.9994
O 2.58923 6.75468 7.93798 0 0 0 -11.4807 -49.4403 13.3706 15.9994
O 0.04748 10.1461 5.00838 0 0 0 -4.27284 -67.2636 -22.4805 15.9994
O 0.8083 8.65018 7.21779 0 0 0 -50.5176 -33.5873 -41.0339 15.9994
O 0.74633 11.2304 7.38305 0 0 0 29.545 -12.3992 63.4464 15.9994
O 0.70063 7.51247 14.3027 0 0 0 -74.6366 13.2656 1.32848 15.9994
O 2.56752 7.6395 12.4041 0 0 0 -4.91669 39.9345 -65.9602 15.9994
O -0.67203 10.5277 16.099 0 0 0 -20.4157 -80.8476 3.07684 15.9994
O -1.23049 12.4917 14.3545 0 0 0 -7.48353 66.6252 32.5539 15.9994
O -2.83251 12.0115 16.4121 0 0 0 -5.21269 81.2618 -14.5993 15.9994
O 0.66246 9.48622 12.6572 0 0 0 -76.1239 16.3339 38.3251 15.9994
O -0.63112 11.67 11.8598 0 0 0 -54.624 16.4831 -22.6562 15.9994
O 9.97946 0.78701 1.88696 0 0 0 73.9825 4.5595 -57.7439 15.9994
O 9.06225 2.15149 3.95236 0 0 0 -41.7598 59.0726 -57.2882 15.9994
O 13.795 2.72059 16.0702 0 0 0 1.72305 78.8246 -40.1726 15.9994
O 13.2018 0.80722 0.47772 0 0 0 -71.9104 -37.5947 0.389133 15.9994
O 5.72069 12.8942 9.75025 0 0 0 -17.7364 -60.697 59.7317 15.9994
O 9.21136 0.69403 8.58185 0 0 0 7.30411 -62.4004 32.8447 15.9994
O 8.93642 2.49486 10.4737 0 0 0 32.8966 68.8969 33.5975 15.9994
O 14.418 0.47061 14.5304 0 0 0 49.6646 -40.0698 65.2645 15.9994
O 11.2887 2.46683 16.8092 0 0 0 -31.6669 -92.4716 -10.5058 15.9994
O 8.91648 3.42654 17.3912 0 0 0 36.1077 73.9558 44.855 15.9994
O 13.715 2.36824 10.9697 0 0 0 34.091 65.3153 22.9316 15.9994
O 11.2857 1.31154 10.1676 0 0 0 23.6434 -25.9141 -1.4874 15.9994
O 11.0612 3.20406 2.63323 0 0 0 -23.3953 40.9037 48.0842 15.9994
O 12.9123 3.51139 0.82195 0 0 0 75.3378 40.7041 2.65702 15.9994
O 12.62 5.411 2.79492 0 0 0 48.8604 -43.5206 35.9047 15.9994
O 7.89691 5.1835 3.46921 0 0 0 44.1825 -29.1586 -12.5467 15.9994
O 10.7922 5.20238 0.92149 0 0 0 -75.2114 -42.2431 -43.23 15.9994
O 10.4634 3.05013 8.35013 0 0 0 -56.9036 47.7445 -40.9263 15.9994
O 12.2452 5.14121 8.53507 0 0 0 -59.5818 45.9196 -3.78121 15.9994
O 7.30099 4.98724 8.45264 0 0 0 1.37903 -33.4611 73.7895 15.9994
O 11.7247 7.53903 4.35416 0 0 0 -10.3678 69.9417 -36.4984 15.9994
O 9.40558 6.51079 5.08323 0 0 0 7.62349 -78.7433 23.9471 15.9994
O 10.6158 4.8446 15.7165 0 0 0 -21.6706 54.3175 58.0325 15.9994
O 12.8165 6.17913 14.9473 0 0 0 -4.99249 52.2815 -9.84659 15.9994
O 7.97807 7.88956 3.2138 0 0 0 -72.5909 53.0788 0.708741 15.9994
O 9.94825 7.65865 1.58721 0 0 0 67.6325 -20.1084 45.0355 15.9994
O 4.95065 8.7731 2.16393 0 0 0 39.5066 -32.0026 -28.9047 15.9994
O 4.94657 11.4283 1.94197 0 0 0 -67.1729 14.6159 -12.4652 15.9994
O 9.40544 11.6154 17.2952 0 0 0 -7.47342 46.7961 39.2582 15.9994
O 7.9372 9.42399 0.98102 0 0 0 -69.0284 -45.4659 5.99668 15.9994
O 6.85389 11.815 0.19252 0 0 0 -17.7736 45.1603 -78.0133 15.9994
O 8.24078 7.41857 7.80262 0 0 0 -83.5981 -20.2745 -0.172129 15.9994
O 10.1929 8.67104 6.39643 0 0 0 42.1502 36.7378 -0.799816 15.9994
O 8.73234 9.94453 8.31735 0 0 0 51.4585 64.534 -16.422 15.9994
O 2.49193 8.92982 9.37277 0 0 0 53.5425 -40.423 18.0142 15.9994
O 3.70766 11.261 8.9674 0 0 0 -60.1238 31.1223 -59.4808 15.9994
O 1.75561 10.9773 10.7807 0 0 0 -4.66346 87.0005 -2.24628 15.9994
O 6.76511 10.3208 3.61416 0 0 0 47.6095 -7.17137 -30.8734 15.9994
O 7.64504 9.25232 5.98168 0 0 0 -42.0701 -44.7463 -38.7375 15.9994
O 2.72008 9.30718 14.4123 0 0 0 71.1597 -52.0412 36.6036 15.9994
O 3.99437 11.6313 14.192 0 0 0 -49.2697 39.3674 -25.2568 15.9994
O 1.79414 11.4279 15.6967 0 0 0 0.32443 37.6689 -18.1412 15.9994
O 6.75394 10.1436 10.2563 0 0 0 -33.2943 -26.4781 -70.818 15.9994
O 4.23926 9.95894 11.176 0 0 0 -40.1573 -52.588 79.648 15.9994
O 6.0938 11.3043 12.6311 0 0 0 85.0345 17.8083 9.24639 15.9994
362
Timestep=85 Time=85.000000 pbc="T T T" Lattice="17.1417 0 0 -8.38196 12.8251 0 0.030516 0.302718 17.5867" Potential_energy=123.34188810256762 Temperature=0 Stress="9521.958673461904 -10010.255634374478 -3514.84909725629 -10010.255634374478 14348.999662689344 -1332.7318802592645 -3514.84909725629 -1332.7318802592645 5958.460557034946" Properties=species:S:1:pos:R:3:vel:R:3:forces:R:3:mass:R:1
Si 3.92171 0.53687 2.44046 0 0 0 -0.061665 0.0662905 0.378155 28.0855
Si -0.236578 3.51205 4.84994 0 0 0 0.277738 -0.28855 1.25652 28.0855
Si -5.07408 12.8787 7.37084 0 0 0 -0.399994 0.80721 0.0798407 28.0855
Si 15.0024 1.41182 10.3873 0 0 0 -0.520968 0.0966002 0.581809 28.0855
Si 2.45385 2.53792 5.9457 0 0 0 -2.29491 0.517058 0.0537165 28.0855
Si -6.21082 12.2302 13.7963 0 0 0 -0.276627 -1.00547 -0.477835 28.0855
Si 14.9168 1.58433 15.3946 0 0 0 -0.272107 1.2266 -0.655786 28.0855
Si 0.222072 1.26554 12.3756 0 0 0 0.316964 0.735762 0.0412218 28.0855
Si -0.4133 3.9174 1.84649 0 0 0 0.233293 -0.385501 -0.440102 28.0855
Si -4.39575 7.21836 3.50292 0 0 0 -0.412893 -0.753693 -0.144715 28.0855
Si 13.2208 5.90854 8.84059 0 0 0 0.125208 -0.254013 0.0580213 28.0855
Si 0.81169 4.05113 13.3915 0 0 0 -0.244643 0.278776 -0.623466 28.0855
Si -2.53406 6.14455 15.5362 0 0 0 -0.424313 -0.168648 -0.955629 28.0855
Si -2.46862 9.19247 2.06992 0 0 0 0.474625 0.00167697 0.106762 28.0855
Si -3.56517 11.4927 0.218384 0 0 0 -1.06136 1.01469 0.623401 28.0855
Si -4.6568 8.491 10.0714 0 0 0 0.518681 -0.230697 0.0970891 28.0855
Si 8.09616 10.44 10.0174 0 0 0 0.0803155 0.0581424 -0.268643 28.0855
Si -6.3796 11.3774 16.6738 0 0 0 0.552498 0.424597 -0.11489 28.0855
Si 0.373565 12.7245 1.1195 0 0 0 -0.516445 -1.47795 1.10045 28.0855
Si 5.14926 2.62064 4.36678 0 0 0 -0.937335 1.49229 0.761069 28.0855
Si 7.74454 2.5006 0.116998 0 0 0 -0.431044 -0.100715 0.987737 28.0855
Si 0.127523 12.8643 7.29724 0 0 0 0.558655 1.17943 -0.497235 28.0855
Si 5.10267 2.1614 9.00845 0 0 0 -0.114611 0.54765 0.885969 28.0855
Si 8.02728 2.0675 5.06787 0 0 0 -0.633753 -0.180765 -0.877739 28.0855
Si 7.85388 0.152098 12.921 0 0 0 -1.1962 0.991985 0.595967 28.0855
Si 5.27648 2.92094 15.9802 0 0 0 -0.443305 0.976399 -0.0996112 28.0855
Si 7.25311 2.38268 11.0474 0 0 0 0.187303 0.630887 -0.513644 28.0855
Si 6.79345 4.2509 2.46328 0 0 0 -0.188835 1.84467 0.368355 28.0855
Si 3.00591 6.3593 4.23256 0 0 0 -0.628903 0.141619 -0.0723516 28.0855
Si 3.70715 6.91174 16.8074 0 0 0 0.273134 0.235006 -0.372668 28.0855
Si 6.02361 4.54561 7.52089 0 0 0 -0.425564 -0.809623 -1.0268 28.0855
Si 3.9633 6.70213 7.02815 0 0 0 -0.0309696 0.145642 0.153875 28.0855
Si 4.87279 4.76193 13.6367 0 0 0 -0.194908 0.264963 -0.629612 28.0855
Si 1.18313 6.48004 15.1983 0 0 0 -1.12758 0.367096 0.538107 28.0855
Si 3.21336 6.50146 11.6823 0 0 0 -0.0264928 0.413926 0.405659 28.0855
Si 3.58375 8.10655 1.79707 0 0 0 1.37635 0.771801 1.02411 28.0855
Si -0.776107 11.2506 3.72342 0 0 0 1.4393 -1.05025 0.861793 28.0855
Si 0.552834 10.6673 16.6292 0 0 0 0.195376 -1.13041 -1.09617 28.0855
Si 1.67747 8.2963 8.16683 0 0 0 0.179048 1.57141 1.39547 28.0855
Si 1.30422 10.4407 6.09503 0 0 0 0.234039 0.879416 -0.177981 28.0855
Si 1.70287 8.63452 13.2191 0 0 0 0.109986 -0.111293 -1.05105 28.0855
Si -1.95319 11.4967 15.2323 0 0 0 -0.366722 -0.0692128 -0.505848 28.0855
Si 0.11293 10.4916 11.3964 0 0 0 0.00455316 0.139708 -0.414891 28.0855
Si 5.81465 12.3951 1.37212 0 0 0 -1.23877 1.49893 0.611846 28.0855
Si 10.3 1.73176 3.00062 0 0 0 -1.22702 -0.914325 -0.104894 28.0855
Si 12.9152 2.46485 17.5629 0 0 0 0.264571 -0.517681 1.54583 28.0855
Si 5.09333 12.2968 8.60765 0 0 0 -0.735478 -0.272098 0.794624 28.0855
Si 9.68628 2.02642 9.26493 0 0 0 0.369899 0.628467 -0.0649448 28.0855
Si 5.16894 12.3809 13.6436 0 0 0 -0.841766 -0.128728 0.461871 28.0855
Si 10.409 3.47168 16.3008 0 0 0 0.435033 -0.983046 0.486998 28.0855
Si 12.1751 2.39654 10.8084 0 0 0 1.0914 0.0641977 0.126347 28.0855
Si 11.8695 4.37093 2.0414 0 0 0 0.603119 -0.162709 -0.415617 28.0855
Si 8.07549 6.41214 3.96698 0 0 0 0.671541 0.425707 -0.290055 28.0855
Si 10.3393 6.61899 0.584221 0 0 0 0.546118 -1.08695 -0.694633 28.0855
Si 11.4605 3.83782 7.66257 0 0 0 0.380211 -0.804982 -0.0862014 28.0855
Si 8.33359 5.99972 8.74734 0 0 0 0.114865 -0.59162 -1.09675 28.0855
Si 10.5103 7.24351 5.60693 0 0 0 -1.74375 -0.00115795 -0.0532214 28.0855
Si 11.8555 5.6104 14.6089 0 0 0 -0.748608 -0.809208 -0.998923 28.0855
Si 8.88429 8.71431 2.07977 0 0 0 -0.195092 0.243096 -0.221436 28.0855
Si 5.47053 9.96024 3.07685 0 0 0 -0.07959 1.0474 1.98025 28.0855
Si 7.87619 10.8231 17.3562 0 0 0 0.673744 0.65896 -0.797288 28.0855
Si 8.62304 8.79784 7.50699 0 0 0 -0.297194 -0.575485 -0.924405 28.0855
Si 2.88978 10.6262 9.9186 0 0 0 -0.337706 1.52803 1.3896 28.0855
Si 7.27114 10.4601 5.42037 0 0 0 0.0468053 -0.124992 0.243193 28.0855
Si 2.9661 10.7414 14.946 0 0 0 -0.700821 1.3025 -0.554724 28.0855
Si 5.53345 10.1717 11.6197 0 0 0 -1.22468 0.527197 1.19416 28.0855
C 2.22291 0.8145 1.74093 0 0 0 0.78108 0.0490926 -0.285416 12.0107
C -4.58427 12.0861 3.79199 0 0 0 0.428956 0.0752339 -0.147573 12.0107
C -0.726998 4.63656 6.27049 0 0 0 -0.716677 0.954128 0.893761 12.0107
C 1.78988 3.19167 7.56371 0 0 0 0.188537 0.000162505 0.231314 12.0107
C -0.539602 1.45301 16.1317 0 0 0 1.5542 -1.05783 -0.283311 12.0107
C -3.14555 7.36783 4.87485 0 0 0 -0.410677 0.22819 -0.591297 12.0107
C -0.47507 4.75403 12.2272 0 0 0 -0.619729 0.956053 -0.850296 12.0107
C -1.233 7.8605 1.66978 0 0 0 0.490767 -0.258269 -0.24002 12.0107
C -3.82621 9.49477 8.7299 0 0 0 0.00311669 0.139739 0.535535 12.0107
C -4.478 9.29146 11.7549 0 0 0 -0.0626379 -0.278032 -0.0900255 12.0107
C 9.10234 9.60173 11.326 0 0 0 -0.256337 -0.0476033 0.803379 12.0107
C -1.57202 12.1507 7.31481 0 0 0 -0.27949 -0.0879496 0.874726 12.0107
C 4.25657 3.49707 10.0419 0 0 0 -0.183189 0.539753 0.286387 12.0107