350
Timestep=0 Time=0.000000 pbc="T T T" Lattice="15.6782 0 0 -7.04085 13.5443 0 -1.01441 0.675028 17.6383" Potential_energy=1319.1939140707977 Temperature=0 Stress="97018.8810275312 -1263.5782226132962 742.744040570171 -1263.5782226132962 100816.87412115066 711.8643572827634 742.744040570171 711.8643572827634 101670.01081238546" Properties=species:S:1:pos:R:3:vel:R:3:forces:R:3:mass:R:1
Si 14.0767 2.11609 3.2886 0 0 0 -8.31486 5.80875 -41.7348 28.0855
Si 0.57355 1.72077 16.2522 0 0 0 0.513024 48.5704 37.5883 28.0855
Si 1.37359 0.29258 7.52295 0 0 0 27.8244 10.4712 -1.03826 28.0855
Si 13.5802 2.86471 8.97912 0 0 0 -13.7176 -60.3937 -58.9158 28.0855
Si 0.46933 2.44638 5.64103 0 0 0 0.0381638 -53.9219 14.3385 28.0855
Si 2.5955 0.86388 13.1448 0 0 0 10.854 -17.7778 31.7306 28.0855
Si -1.24956 3.07622 14.2118 0 0 0 -16.6449 42.7295 -7.78865 28.0855
Si 0.01363 2.73123 0.83254 0 0 0 7.54658 72.1463 8.75631 28.0855
Si 11.2057 5.9075 4.0937 0 0 0 -11.4729 13.6377 49.0868 28.0855
Si -2.69427 5.54783 17.0553 0 0 0 20.5647 23.6197 -35.9227 28.0855
Si 0.13425 4.64913 7.97538 0 0 0 -37.2694 8.16747 -35.8691 28.0855
Si -3.90883 7.46765 10.0227 0 0 0 -5.12158 3.90736 -5.31213 28.0855
Si -1.11679 7.1018 6.45156 0 0 0 15.6689 -37.8758 -66.0944 28.0855
Si -0.1634 5.92306 14.1104 0 0 0 53.1944 -23.429 -35.0547 28.0855
Si -1.19858 7.11014 11.4856 0 0 0 36.976 80.212 -1.29102 28.0855
Si -2.18596 7.74773 2.80965 0 0 0 50.5506 40.512 44.7686 28.0855
Si -4.74587 11.3881 3.16397 0 0 0 10.0282 59.929 -25.2367 28.0855
Si -2.26774 9.74815 0.42051 0 0 0 12.1645 52.8221 -0.0369389 28.0855
Si -2.70506 9.42678 8.02474 0 0 0 3.70216 35.3458 -9.20254 28.0855
Si -6.88634 12.6482 10.0579 0 0 0 36.0046 -75.1374 -16.1567 28.0855
Si -4.11614 11.4998 6.20173 0 0 0 79.0948 92.9335 -7.09205 28.0855
Si -2.39159 10.892 14.4603 0 0 0 -21.8049 2.96632 13.7684 28.0855
Si -3.57903 11.7904 11.726 0 0 0 11.5054 -54.2329 61.5063 28.0855
Si 3.1475 2.26176 3.83091 0 0 0 53.0462 -44.3843 -8.21598 28.0855
Si -0.1615 13.5485 7.36295 0 0 0 7.48807 35.57 -7.57621 28.0855
Si 3.28823 2.09693 8.90277 0 0 0 -59.9534 7.93722 1.68794 28.0855
Si 5.66699 1.61601 5.10086 0 0 0 4.55791 -8.84525 51.5674 28.0855
Si 8.05027 1.05065 14.522 0 0 0 -59.1882 -28.2692 18.8393 28.0855
Si 3.0938 3.6339 16.3395 0 0 0 21.7565 14.5845 63.8689 28.0855
Si 6.51795 2.98545 12.4506 0 0 0 0.508474 8.34197 -8.2648 28.0855
Si 4.74949 4.49147 2.49562 0 0 0 15.3901 -27.1934 -61.87 28.0855
Si 1.63299 7.28098 5.16737 0 0 0 -4.69497 -78.5733 -40.5657 28.0855
Si 3.46497 6.84706 0.79153 0 0 0 11.159 19.0011 -24.1496 28.0855
Si 5.36253 3.80499 7.28936 0 0 0 -10.4981 -1.28089 -4.43211 28.0855
Si 1.39202 6.69626 9.77415 0 0 0 -11.5074 50.1727 11.2713 28.0855
Si 4.31592 6.51994 6.39572 0 0 0 64.6321 -12.7291 -3.55538 28.0855
Si 4.61841 4.99832 13.9409 0 0 0 114.046 41.4576 33.9069 28.0855
Si -0.33955 7.48543 16.8629 0 0 0 -11.2886 33.1869 -13.4813 28.0855
Si 3.91492 7.21323 11.8034 0 0 0 8.57279 25.2196 41.4183 28.0855
Si 2.50186 9.19652 2.73188 0 0 0 -36.9794 -11.9275 -8.57396 28.0855
Si 2.12984 9.39975 8.54233 0 0 0 52.2689 23.4488 33.072 28.0855
Si -1.47969 11.8243 9.42045 0 0 0 38.8952 -22.9156 31.9443 28.0855
Si 1.12532 11.0224 6.11211 0 0 0 -50.0337 -2.44793 2.56427 28.0855
Si 3.11182 9.69443 13.6766 0 0 0 -80.6039 -11.8593 31.8953 28.0855
Si 1.44606 12.0938 12.559 0 0 0 -67.6349 -38.2961 -0.586558 28.0855
Si 4.92064 13.6355 2.59572 0 0 0 19.7422 12.9161 -7.4934 28.0855
Si 8.022 1.71099 3.11878 0 0 0 61.1443 -34.8876 45.5715 28.0855
Si 9.66075 3.15944 15.7173 0 0 0 18.4922 -10.0228 51.4345 28.0855
Si 11.1774 2.8831 10.9115 0 0 0 17.6926 -51.6542 6.30297 28.0855
Si 9.48037 4.23273 1.96718 0 0 0 93.4119 -5.59548 -42.5085 28.0855
Si 6.32758 6.49933 4.01999 0 0 0 3.12663 21.0471 7.90544 28.0855
Si 8.99135 6.7478 0.15853 0 0 0 4.58533 21.4782 -10.0722 28.0855
Si 9.89702 5.76239 8.2774 0 0 0 5.97496 -30.5413 24.4292 28.0855
Si 6.78844 7.86246 10.5543 0 0 0 57.3955 2.27966 -38.1978 28.0855
Si 8.85988 7.1848 5.59087 0 0 0 -0.0439709 -16.1513 -13.308 28.0855
Si 10.6711 5.01507 13.235 0 0 0 104.44 29.9415 13.2838 28.0855
Si 9.45609 7.70202 12.2709 0 0 0 10.5298 -21.6431 -43.211 28.0855
Si 9.80642 9.42402 1.17566 0 0 0 -58.0246 40.7507 -25.8807 28.0855
Si 3.6453 11.396 4.35395 0 0 0 16.3748 -7.52989 -6.14638 28.0855
Si 6.37442 11.4203 0.91673 0 0 0 42.8286 20.7982 45.2346 28.0855
Si 7.24917 10.349 8.88843 0 0 0 76.1828 0.543337 3.6045 28.0855
Si 2.50693 12.1093 9.80075 0 0 0 13.7624 -5.66995 -23.9594 28.0855
Si 5.88885 11.6908 6.43011 0 0 0 14.0976 41.2552 -7.1153 28.0855
Si 9.14962 10.1686 14.2255 0 0 0 -46.0784 9.66246 26.9019 28.0855
Si 3.92876 11.4804 15.957 0 0 0 -19.4587 27.0012 2.78816 28.0855
Si 7.84102 12.5503 12.836 0 0 0 -23.1339 -9.3761 16.7406 28.0855
C 12.9385 3.44723 2.78076 0 0 0 -5.85187 1.64294 -10.891 12.0107
C -6.11038 13.4927 16.6322 0 0 0 1.39232 -10.1522 4.22556 12.0107
C 2.35577 2.49647 12.285 0 0 0 2.17146 4.50154 8.20727 12.0107
C -1.06567 3.02867 12.3746 0 0 0 4.31304 -0.106536 -9.32157 12.0107
C 11.9574 4.89969 5.46518 0 0 0 -1.3782 -1.55243 14.8781 12.0107
C 12.3651 5.42619 0.05533 0 0 0 -8.00258 2.44157 -4.9037 12.0107
C -2.13193 9.17051 4.0005 0 0 0 0.482812 5.58292 0.579787 12.0107
C -2.83534 9.08402 14.5329 0 0 0 -6.27876 -4.36535 2.05086 12.0107
C -0.94705 8.92975 11.5418 0 0 0 6.52826 13.4616 3.94281 12.0107
C 3.03866 1.41894 2.18836 0 0 0 1.25341 -5.20103 -5.61202 12.0107
C 4.09802 0.8229 14.2633 0 0 0 -2.6518 3.30607 -7.54846 12.0107
C 4.60038 2.80906 17.0522 0 0 0 3.33215 -5.55701 2.11652 12.0107
C 6.07329 1.6694 11.2312 0 0 0 3.96919 -5.26584 -10.8697 12.0107
C 7.40102 4.4152 11.6957 0 0 0 2.2849 4.52628 -8.13468 12.0107
C 1.04866 4.05509 1.54435 0 0 0 5.14589 9.10519 0.305906 12.0107
C 1.35264 5.6996 4.29178 0 0 0 -0.261129 -7.11134 -4.79673 12.0107
C 3.83254 7.65604 17.222 0 0 0 13.5817 -1.42594 -8.18906 12.0107
C 1.02985 10.0004 1.94968 0 0 0 -6.83542 2.43777 -4.09025 12.0107
C 5.30567 7.47416 7.60114 0 0 0 6.66345 2.76617 1.50673 12.0107
C 1.68197 8.83992 14.4235 0 0 0 -9.85734 -0.787744 2.5663 12.0107
C 8.08486 0.35449 1.85043 0 0 0 3.02831 -5.30807 -3.56599 12.0107
C 8.0131 3.65388 16.4224 0 0 0 -8.27302 -0.443738 2.94485 12.0107
C 9.79648 2.35332 9.78761 0 0 0 -0.692229 -11.726 -6.66245 12.0107
C 11.7076 1.45466 11.9806 0 0 0 -2.80531 -5.55928 -0.848522 12.0107
C 8.59686 7.00191 16.0928 0 0 0 2.26906 -3.45495 -11.3688 12.0107
C 6.88903 4.4623 8.05426 0 0 0 0.808427 1.60056 0.949182 12.0107
C 6.48803 7.99519 2.9622 0 0 0 -3.22809 7.64539 -10.822 12.0107
C 8.4082 8.95483 5.50543 0 0 0 -0.673314 7.89699 -4.64314 12.0107
C 8.89957 9.59642 8.5863 0 0 0 16.4746 -2.08461 -3.31311 12.0107
C -6.23545 12.4057 2.75794 0 0 0 -16.164 0.913491 5.29682 12.0107
C 7.3521 11.9574 5.3363 0 0 0 1.10836 5.40285 -4.10753 12.0107
C 5.25128 13.2927 7.13 0 0 0 6.46842 8.26223 -1.15336 12.0107
C 7.50896 9.87368 15.0524 0 0 0 -6.53351 -1.80716 8.50926 12.0107
C 4.70238 13.0316 15.2916 0 0 0 -4.90349 12.8307 -3.56759 12.0107
C 2.14047 11.6266 16.4733 0 0 0 -0.0377158 10.7778 6.46458 12.0107
C 4.28935 11.7467 9.98413 0 0 0 9.249 -1.78453 -1.26315 12.0107
C 6.25865 11.6423 12.5689 0 0 0 -8.14225 1.00336 0.619767 12.0107
H 13.9021 1.48417 9.41481 0 0 0 -1.0916 7.39631 -0.638004 1.00794
H 13.0805 2.89305 7.57789 0 0 0 0.904607 -2.83405 5.91149 1.00794
H -5.67365 14.0637 13.8949 0 0 0 16.5498 4.30387 -12.0481 1.00794
H 13.0059 3.02535 14.6474 0 0 0 6.43695 2.35107 -3.2601 1.00794
H -2.75414 5.50425 15.5789 0 0 0 -3.7159 2.85271 9.34121 1.00794
H -1.87982 6.67374 5.27514 0 0 0 12.5978 0.949733 13.9121 1.00794
H 1.19742 5.87264 13.5439 0 0 0 -2.29839 -2.11444 0.670915 1.00794
H -0.93868 6.93749 2.81903 0 0 0 -5.15227 10.1607 2.40857 1.00794
H -3.45668 12.0527 2.84323 0 0 0 -8.91542 2.21952 1.80976 1.00794
H -4.49984 10.4934 17.2124 0 0 0 13.7809 0.693827 3.74729 1.00794
H -2.08323 10.4191 17.1752 0 0 0 -10.2341 4.29225 15.4936 1.00794
H -2.16974 10.9603 1.28371 0 0 0 0.52552 -8.42985 -5.48755 1.00794
H -2.90007 12.3077 6.02962 0 0 0 -1.54662 -2.95106 -0.727655 1.00794
H -0.99628 11.1541 14.9206 0 0 0 -7.92767 -5.12676 1.03777 1.00794
H -3.32588 11.6901 15.3038 0 0 0 4.18123 -7.25905 -5.97843 1.00794
H -5.77774 11.6987 10.2243 0 0 0 -17.1404 4.92699 -8.66423 1.00794
H -4.52768 10.6702 11.6653 0 0 0 1.15595 -0.0510354 3.8776 1.00794
H 7.65321 1.1572 7.85745 0 0 0 0.279082 -1.70341 -2.02364 1.00794
H 3.60842 1.21531 10.0338 0 0 0 -5.21278 0.274082 -4.83101 1.00794
H 7.108 0.6559 15.5906 0 0 0 1.36611 2.23202 -1.9224 1.00794
H 2.4647 4.5776 17.2941 0 0 0 10.0657 -8.82381 -7.80496 1.00794
H 2.28596 3.12474 9.26264 0 0 0 7.09528 -7.09542 1.25131 1.00794
H 5.1694 3.53884 1.46697 0 0 0 -5.00055 6.67057 13.6806 1.00794
H 5.71218 5.72894 14.6263 0 0 0 -3.77827 -3.68634 -0.694626 1.00794
H 3.55034 9.06889 8.70111 0 0 0 -8.15572 4.80073 4.20998 1.00794
H -0.1069 10.5451 5.47405 0 0 0 11.0138 13.7258 14.2107 1.00794
H -0.59514 8.9352 16.8973 0 0 0 5.28142 -7.6378 -0.925134 1.00794
H -0.35316 11.6993 10.3371 0 0 0 -9.74104 1.02269 -3.84575 1.00794
H 0.15017 11.4035 12.5514 0 0 0 4.01786 2.84854 -1.23853 1.00794
H 11.1444 1.17078 2.00864 0 0 0 2.18874 0.00117685 4.73911 1.00794
H 8.96008 1.49611 4.25696 0 0 0 -3.4909 -1.60607 -6.17681 1.00794
H 10.7695 3.09922 16.7029 0 0 0 -6.46001 1.21871 -0.822894 1.00794
H 10.4599 3.49147 1.15592 0 0 0 -7.31041 -0.956682 5.42221 1.00794
H 7.67166 7.4226 0.07632 0 0 0 38.6907 3.37878 -3.62311 1.00794
H 8.99492 5.63209 9.43989 0 0 0 8.52524 -3.22305 -3.27558 1.00794
H 10.2659 4.4506 7.70529 0 0 0 -3.24223 4.28431 1.78073 1.00794
H 7.30946 7.00164 9.49097 0 0 0 0.868652 16.3091 8.21484 1.00794
H 12.0208 5.52161 13.526 0 0 0 -2.84668 -1.30633 -2.96094 1.00794
H 8.98941 10.8224 17.5368 0 0 0 -4.71807 -4.02573 6.21146 1.00794
H 7.63308 12.005 0.38363 0 0 0 -6.35953 -4.16933 4.05496 1.00794
H 8.4347 9.66185 1.68158 0 0 0 23.8449 1.62058 -7.36252 1.00794
H 6.58773 10.6005 2.12657 0 0 0 -5.36552 8.84877 -4.95711 1.00794
H 2.27706 13.0934 8.72914 0 0 0 12.285 -7.70667 6.01699 1.00794
H -5.4589 10.433 15.2174 0 0 0 -10.8239 1.60784 -3.7048 1.00794
H 7.69023 13.5623 13.8915 0 0 0 -6.79889 -21.3115 -8.86877 1.00794
H 12.6173 3.25924 1.75039 0 0 0 -0.765109 -4.86005 -3.22808 1.00794
H -2.28123 4.44189 2.82418 0 0 0 14.6836 -1.09793 1.05432 1.00794
H 12.0487 3.43475 3.41411 0 0 0 5.71681 -26.3164 -3.13313 1.00794
H -5.44781 13.4238 17.508 0 0 0 4.2561 1.85256 4.38366 1.00794
H -5.6267 12.9701 15.7983 0 0 0 3.03367 -1.29082 -4.43591 1.00794
H -7.04529 12.9673 16.8731 0 0 0 -5.6888 1.49835 -1.88991 1.00794
H 1.59281 2.40307 11.5027 0 0 0 2.70478 -8.52535 -6.60081 1.00794
H 3.28383 2.85965 11.8299 0 0 0 5.70002 -2.10044 -2.72402 1.00794
H 2.02567 3.25353 13.0099 0 0 0 -1.43686 2.20897 6.03563 1.00794
H -0.10152 3.4593 12.0788 0 0 0 -5.92093 8.78238 2.42393 1.00794
H -1.84513 3.65613 11.9235 0 0 0 0.501715 5.45522 5.66192 1.00794
H -1.12537 2.02058 11.949 0 0 0 -3.27651 -3.79096 4.90789 1.00794
H 12.9479 4.49393 5.23505 0 0 0 7.14349 0.8661 -3.90845 1.00794
H 11.2902 4.05217 5.68179 0 0 0 -3.36287 -4.59965 -0.399714 1.00794
H 12.0542 5.4882 6.38586 0 0 0 0.463986 5.78267 0.062824 1.00794
H 11.1065 7.04877 17.1954 0 0 0 1.19144 5.54293 -2.21567 1.00794
H 12.3404 5.60877 1.13236 0 0 0 5.67888 -8.1938 -7.96792 1.00794
H 10.5799 5.36389 17.4459 0 0 0 8.21337 -1.45263 -1.1978 1.00794
H -2.17752 10.1258 3.45969 0 0 0 4.55105 0.354156 -0.703244 1.00794
H -1.19054 9.1641 4.56213 0 0 0 -7.9997 -10.1461 -15.0087 1.00794
H -2.9673 9.13081 4.70853 0 0 0 -5.4602 -7.16026 1.22665 1.00794
H -2.0021 8.44035 14.2333 0 0 0 4.89424 4.74598 -3.24897 1.00794
H -3.69112 8.87819 13.8773 0 0 0 5.46186 0.381757 -3.81566 1.00794
H -3.13039 8.79607 15.5516 0 0 0 -0.337587 -0.127794 4.66946 1.00794
H -0.62315 9.27723 10.5526 0 0 0 1.16971 -3.54534 -3.29714 1.00794
H -0.16673 9.21678 12.2558 0 0 0 -7.66 0.447192 -10.0828 1.00794
H -1.85946 9.46504 11.8182 0 0 0 -5.23025 -12.0876 -3.76493 1.00794
H 3.93219 0.78772 2.08184 0 0 0 4.50503 -3.16594 -2.77418 1.00794
H 3.02917 2.1483 1.37153 0 0 0 2.90806 3.99177 -0.483992 1.00794
H 2.15421 0.78957 2.07539 0 0 0 6.61602 12.8903 3.0762 1.00794
H -2.1419 13.7662 13.8146 0 0 0 4.42037 2.00442 -3.62438 1.00794
H -3.17642 13.9403 15.2453 0 0 0 -6.62243 -0.672613 5.89686 1.00794
H 4.48225 1.83666 14.3994 0 0 0 -6.1122 -4.85191 -7.29845 1.00794
H 5.32039 3.55661 17.4107 0 0 0 4.75991 6.05076 -4.02584 1.00794
H 5.10402 2.16715 16.3199 0 0 0 6.55635 1.77405 7.2841 1.00794
H 5.32776 1.51015 0.27214 0 0 0 -4.19535 -3.69792 1.84141 1.00794
H 6.97491 1.06642 11.0438 0 0 0 0.591579 -2.06502 -1.10208 1.00794
H 5.75281 2.08572 10.2702 0 0 0 10.737 5.9077 8.32305 1.00794
H 5.29101 0.99085 11.5931 0 0 0 -1.71597 -0.364146 7.45952 1.00794
H 6.69987 4.88649 10.993 0 0 0 -1.77036 -0.796474 3.35692 1.00794
H 8.31476 4.15392 11.1554 0 0 0 -1.48652 -8.10299 -0.686722 1.00794
H 7.65719 5.15697 12.4617 0 0 0 -8.47027 -2.5476 5.95638 1.00794
H 1.8247 4.39029 0.85482 0 0 0 -6.11633 -15.0348 -1.89901 1.00794
H 1.52207 3.70807 2.46378 0 0 0 -17.5132 7.68273 -14.2493 1.00794
H 0.43808 4.92623 1.79882 0 0 0 -8.14995 0.125902 3.03191 1.00794
H 1.69968 4.86735 4.90784 0 0 0 6.21737 8.86987 4.07612 1.00794
H 1.93354 5.68274 3.36573 0 0 0 3.38652 11.158 4.22996 1.00794
H 0.29587 5.54552 4.04055 0 0 0 -6.3673 0.485242 4.02247 1.00794
H 3.79029 8.55798 16.6025 0 0 0 -7.93443 1.69714 3.98786 1.00794
H 3.81186 6.77931 16.5579 0 0 0 -0.563789 -3.1916 -2.33189 1.00794
H 5.81436 6.98762 0.10068 0 0 0 -31.0821 -9.30595 6.17087 1.00794
H 0.47904 10.5991 2.68791 0 0 0 -1.54232 2.42872 6.57218 1.00794
H 0.35227 9.22536 1.56367 0 0 0 2.95034 -5.90669 1.91749 1.00794
H 1.30783 10.65 1.10941 0 0 0 5.76845 3.58808 -2.95219 1.00794
H 5.25526 8.54521 7.37969 0 0 0 -6.62044 -7.05992 -9.01244 1.00794
H 6.35487 7.15859 7.54787 0 0 0 2.544 0.188046 -7.83328 1.00794
H 4.94316 7.30787 8.62198 0 0 0 -12.5762 -8.14509 -6.28834 1.00794
H 2.02749 7.98089 15.0091 0 0 0 10.3127 -2.86684 1.78925 1.00794
H 1.02329 8.45469 13.6389 0 0 0 13.9943 -1.62961 4.18777 1.00794
H 1.08417 9.48794 15.075 0 0 0 0.364993 8.17653 0.484589 1.00794
H 0.89165 12.9289 2.34467 0 0 0 -0.997711 -2.97057 4.67173 1.00794
H 9.04856 0.32032 1.32424 0 0 0 5.68799 3.46652 -1.44489 1.00794
H 7.28761 0.48713 1.10479 0 0 0 -3.1738 2.23611 -2.17161 1.00794
H 7.9905 4.60995 16.9452 0 0 0 -0.428682 -13.4754 -12.2198 1.00794
H 7.68497 2.87759 17.1289 0 0 0 -0.162633 -4.19154 4.04927 1.00794
H 7.27671 3.70341 15.6099 0 0 0 -4.67585 5.49471 -1.62525 1.00794
H 9.02654 1.79896 10.3398 0 0 0 -1.44572 0.579054 6.36081 1.00794
H 10.1908 1.681 9.0108 0 0 0 5.54404 -1.07462 -2.56209 1.00794
H 9.32272 3.19768 9.27569 0 0 0 6.99293 -2.96541 8.68181 1.00794
H 12.4662 0.84668 11.4698 0 0 0 3.39005 4.54307 -6.29211 1.00794
H 10.8372 0.81553 12.1853 0 0 0 -5.27925 -1.43276 0.643461 1.00794
H 12.1207 1.77836 12.9437 0 0 0 -2.49983 4.47398 1.52056 1.00794
H 7.75324 6.93076 15.391 0 0 0 -6.19687 -1.59325 -1.62761 1.00794
H 9.14163 6.05767 16.0457 0 0 0 3.93686 7.81673 -3.36952 1.00794
H 9.28027 7.77447 15.7212 0 0 0 6.05869 -0.328318 5.40747 1.00794
H 7.47454 4.98643 7.29098 0 0 0 -12.3155 -6.3383 -8.08555 1.00794
H 7.47407 3.61073 8.42705 0 0 0 -6.13563 -2.26778 -2.11901 1.00794
H 6.69383 5.14334 8.88714 0 0 0 -13.1098 -7.76459 -5.704 1.00794
H 5.6924 8.02769 2.20921 0 0 0 0.520446 -1.64778 -0.11803 1.00794
H 7.45192 8.04033 2.44479 0 0 0 -0.807027 -15.9614 6.42802 1.00794
H 6.37054 8.89922 3.57199 0 0 0 -4.74995 1.48077 6.46418 1.00794
H 8.34824 9.22437 4.44406 0 0 0 6.26182 2.04069 -3.24518 1.00794
H 9.19379 9.57498 5.94198 0 0 0 5.02614 -2.13405 -3.04056 1.00794
H 7.4527 9.18852 5.98466 0 0 0 -4.6949 -11.7267 1.39657 1.00794
H 9.53919 10.2148 7.95133 0 0 0 -5.22845 6.50813 3.32764 1.00794
H 8.83675 8.59454 8.15235 0 0 0 -9.2747 13.0477 11.6905 1.00794
H 9.40676 9.51245 9.55796 0 0 0 1.03959 -1.00836 2.66362 1.00794
H 8.5357 11.81 2.91934 0 0 0 5.13842 -1.61898 -5.88969 1.00794
H -6.24057 12.7546 1.71767 0 0 0 0.497039 -6.61165 -7.66976 1.00794
H -6.30752 13.2846 3.4102 0 0 0 2.311 2.83819 9.11118 1.00794
H 7.33698 11.2152 4.52933 0 0 0 -9.75032 -2.36035 1.17154 1.00794
H 8.3092 11.8651 5.85911 0 0 0 -1.46522 -1.23947 7.53927 1.00794
H 7.29491 12.9525 4.8868 0 0 0 5.86148 -1.2612 7.35849 1.00794
H 12.27 0.49095 6.31823 0 0 0 -0.852643 4.27585 -4.10534 1.00794
H 5.92461 13.6649 7.91369 0 0 0 3.86325 -4.65681 1.01489 1.00794
H 4.23858 13.2125 7.54626 0 0 0 -3.36503 -5.15287 -2.49932 1.00794
H 7.60043 9.2788 15.9637 0 0 0 -1.16126 19.8845 -10.1753 1.00794
H 6.7806 9.37344 14.4014 0 0 0 1.98777 -7.93153 -8.0881 1.00794
H 7.0815 10.8398 15.3566 0 0 0 2.37353 4.49018 5.67041 1.00794
H 4.29863 13.3173 14.3143 0 0 0 -6.25144 -4.84137 -6.23153 1.00794
H 5.79201 12.9244 15.1976 0 0 0 4.07014 -3.10769 2.89576 1.00794
H 4.50414 13.8636 15.9821 0 0 0 -0.158336 2.80946 5.73224 1.00794
H 1.85861 10.7355 17.0525 0 0 0 0.07545 -6.34263 0.811865 1.00794
H 1.42171 11.7555 15.6569 0 0 0 1.74176 -1.8287 -7.55754 1.00794
H 2.05026 12.4969 17.1418 0 0 0 -0.412556 4.65692 3.04283 1.00794
H 4.62321 11.2711 9.0543 0 0 0 -14.9966 3.11059 5.92699 1.00794
H 4.45592 11.0294 10.7922 0 0 0 -12.3456 -7.88849 -0.161793 1.00794
H 4.91243 12.6324 10.1432 0 0 0 -3.94364 10.2271 -3.32652 1.00794
H 5.92058 11.1866 13.5042 0 0 0 -2.19621 4.02612 -5.31663 1.00794
H 6.35135 10.8553 11.8131 0 0 0 10.597 -0.0958502 6.34072 1.00794
H 5.47556 12.3382 12.2536 0 0 0 1.65208 4.58038 8.84159 1.00794
O -0.87745 2.50662 4.71792 0 0 0 -60.9037 68.3995 38.7056 15.9994
O 0.39066 1.02336 6.44444 0 0 0 -51.6497 -42.1698 -19.8833 15.9994
O -0.45322 1.87692 14.993 0 0 0 -14.4307 -70.2305 -41.4998 15.9994
O -0.53788 1.81494 2.08521 0 0 0 26.6589 -42.7503 -1.51119 15.9994
O -0.152505 2.37055 17.5563 0 0 0 13.5036 -50.2466 38.0016 15.9994
O -2.24595 4.05388 17.6072 0 0 0 -57.6445 -51.1778 -18.3223 15.9994
O -0.70809 3.75419 9.04954 0 0 0 22.8566 -4.34325 79.0807 15.9994
O 0.59125 3.67887 6.72316 0 0 0 75.2335 32.8592 -9.71514 15.9994
O -0.86378 5.79798 7.39422 0 0 0 -76.4039 -13.7022 42.0287 15.9994
O -0.5707 4.48426 14.7456 0 0 0 5.14192 -19.5403 65.6213 15.9994
O -2.63885 6.76638 10.7678 0 0 0 1.77514 -85.5635 -2.72442 15.9994
O -1.23395 6.39198 12.9598 0 0 0 -75.3104 -17.4382 22.1725 15.9994
O -3.40838 6.68461 3.12199 0 0 0 -13.9551 -16.6231 -65.9834 15.9994
O -2.3089 8.3443 1.27768 0 0 0 -21.2952 -64.4737 -48.1406 15.9994
O -3.45913 8.89365 9.36754 0 0 0 -18.6827 61.1496 49.9616 15.9994
O -1.99651 8.18483 7.27643 0 0 0 -5.83743 -35.7277 35.3903 15.9994
O -6.44436 13.7766 8.95695 0 0 0 -22.5025 73.8802 32.9754 15.9994
O -4.74789 11.0424 4.77124 0 0 0 -46.1336 -68.3773 -1.7505 15.9994
O -3.80086 10.131 7.04385 0 0 0 -60.4758 -53.3882 -17.6794 15.9994
O -5.279 12.3352 7.0168 0 0 0 -45.5227 -56.1559 27.838 15.9994
O -2.47429 11.465 12.8982 0 0 0 74.2549 13.7523 -13.0918 15.9994
O -4.2817 13.2246 11.9888 0 0 0 -48.1586 47.3905 -44.9432 15.9994
O 1.74028 2.46821 4.632 0 0 0 -20.3498 15.6376 -47.303 15.9994
O 2.72085 1.18044 7.65784 0 0 0 52.4258 5.52448 -39.7812 15.9994
O 4.09549 1.33323 4.79401 0 0 0 -30.0515 -29.7525 17.0124 15.9994
O 6.20454 0.32218 5.91845 0 0 0 -4.08982 -61.1299 -41.2262 15.9994
O 1.96855 2.52071 15.9122 0 0 0 22.0819 -27.5708 -76.6424 15.9994
O 7.40608 2.23754 13.622 0 0 0 38.9476 67.1079 -5.80936 15.9994
O 3.86704 3.72628 3.64724 0 0 0 -5.34543 45.6435 63.9326 15.9994
O 0.27684 7.77134 5.95764 0 0 0 14.6998 67.4941 13.8224 15.9994
O 3.78206 5.64191 1.85105 0 0 0 -59.4786 -6.03807 33.3688 15.9994
O 4.65919 2.81135 8.37911 0 0 0 61.3162 -19.6694 52.5726 15.9994
O 5.86322 2.96127 5.97954 0 0 0 59.0946 55.964 -31.174 15.9994
O 1.39566 5.41077 8.73101 0 0 0 79.8427 -23.6242 -19.7133 15.9994
O 0.08104 6.44322 10.7031 0 0 0 -16.4137 -78.2773 18.6953 15.9994
O 2.79445 7.10463 6.31065 0 0 0 -20.4877 27.9225 67.8072 15.9994
O 4.27064 4.93153 6.82371 0 0 0 -67.7209 -14.2901 3.93335 15.9994
O 3.48917 4.54103 15.0214 0 0 0 -73.7576 33.4822 -9.64295 15.9994
O 5.20073 3.67194 13.1961 0 0 0 -51.4754 -70.6193 -26.5261 15.9994
O -0.23061 7.00477 15.3164 0 0 0 1.18165 75.3818 -41.5557 15.9994
O 2.07026 6.50796 0.00289 0 0 0 4.43433 -76.0647 7.57592 15.9994
O -1.57942 6.67485 17.5398 0 0 0 -24.4685 14.2101 73.5028 15.9994
O 2.75338 6.86249 10.6905 0 0 0 24.143 -22.5547 -30.3357 15.9994
O 3.87956 6.0051 12.8892 0 0 0 -76.1685 -25.6401 6.43073 15.9994
O 2.01974 8.45606 4.10303 0 0 0 -6.0554 40.0633 33.8553 15.9994
O 3.23601 8.20728 1.66332 0 0 0 61.1995 37.1555 -24.0589 15.9994
O 1.2133 8.10045 8.95182 0 0 0 -83.6542 6.49111 -41.4487 15.9994
O -1.55715 10.5058 8.43996 0 0 0 73.2995 -9.75459 -24.2531 15.9994
O -1.30342 13.1514 8.47074 0 0 0 -53.0564 48.1844 7.46498 15.9994
O -2.86277 11.9358 10.2606 0 0 0 -65.3768 23.1214 -47.5807 15.9994
O 1.85322 9.86906 7.00442 0 0 0 45.5933 -62.8577 -59.832 15.9994
O 0.80496 12.2695 7.10839 0 0 0 56.8593 -6.35289 65.7633 15.9994
O 3.76721 8.65936 12.5659 0 0 0 54.6673 52.9456 -24.9699 15.9994
O 2.65922 11.0483 12.8703 0 0 0 60.0704 14.6867 -41.008 15.9994
O 1.40104 13.2767 13.6646 0 0 0 50.9713 -13.5288 24.9596 15.9994
O 13.2116 0.72426 3.4499 0 0 0 16.7202 -19.6233 43.0191 15.9994
O 6.47741 1.75808 3.69786 0 0 0 -38.6942 8.34091 -71.4109 15.9994
O 9.45128 1.61807 15.1547 0 0 0 38.8075 -16.483 7.73598 15.9994
O 12.4179 3.45906 9.97182 0 0 0 4.12929 73.4499 16.3377 15.9994
O 8.3437 3.17382 2.44302 0 0 0 -82.2304 27.9754 -9.85972 15.9994
O 10.2439 4.90596 3.22688 0 0 0 -21.7816 -37.7515 59.2779 15.9994
O 6.10341 5.14503 3.12423 0 0 0 62.6517 -24.3387 -13.019 15.9994
O 4.97049 6.68268 4.90924 0 0 0 -51.0484 39.2602 -42.2791 15.9994
O 8.7687 5.4081 1.07793 0 0 0 -85.185 -6.97504 9.45346 15.9994
O 11.2646 6.49569 8.81818 0 0 0 55.8104 -29.3217 -55.5143 15.9994
O 5.37688 7.23221 11.082 0 0 0 7.39589 -85.7009 -26.3286 15.9994
O 10.2318 7.05389 4.72379 0 0 0 30.097 70.1258 -21.8278 15.9994
O 7.6457 6.25062 4.98009 0 0 0 9.48945 -58.1788 11.6895 15.9994
O 9.15456 6.66147 7.12284 0 0 0 -42.0856 46.6059 35.3847 15.9994
O 10.1127 4.15497 14.4969 0 0 0 -52.6639 -12.5166 -18.5405 15.9994
O 10.6835 4.13696 11.8621 0 0 0 -60.3649 19.0062 -50.8663 15.9994
O 10.5502 7.79093 11.0611 0 0 0 -14.6344 56.6141 -17.2238 15.9994
O 7.91831 7.87174 11.7432 0 0 0 -50.9259 17.2549 65.0847 15.9994
O 9.63888 6.27799 13.0309 0 0 0 -61.7315 -20.9375 52.0356 15.9994
O 10.0076 7.81136 0.92631 0 0 0 47.3323 -33.8179 21.106 15.9994
O -4.79871 9.97214 2.29976 0 0 0 39.8074 -35.1133 21.4804 15.9994
O 3.65816 10.2835 3.1633 0 0 0 40.3613 -3.65587 -38.0846 15.9994
O 4.0264 12.8304 3.68812 0 0 0 -58.025 54.1486 30.2496 15.9994
O 2.13466 11.551 4.94344 0 0 0 -43.8554 56.4814 -41.2455 15.9994
O 5.39514 12.683 1.35141 0 0 0 -40.1226 6.77399 -77.6847 15.9994
O 6.4986 9.37963 10.0026 0 0 0 -49.052 35.5171 14.8963 15.9994
O 7.46684 11.8508 9.51605 0 0 0 -51.0692 28.9887 4.23299 15.9994
O 1.75055 10.6554 9.53074 0 0 0 -42.3032 -1.53641 35.5257 15.9994
O 1.79237 12.7943 11.125 0 0 0 -1.7644 53.0626 -12.5363 15.9994
O 4.68624 10.9816 5.52855 0 0 0 10.1066 -63.9123 32.3973 15.9994
O 6.25578 10.5618 7.6002 0 0 0 -27.5223 -45.6316 -24.9063 15.9994
O 9.70889 8.89722 13.3373 0 0 0 75.3645 0.492077 33.1775 15.9994
O 4.13443 10.2061 14.8748 0 0 0 46.4306 -24.9697 14.3443 15.9994
O 4.71913 11.137 17.3841 0 0 0 -1.72951 -62.3968 -7.60999 15.9994
O -7.32393 13.3486 11.4681 0 0 0 -1.94554 46.9392 16.4527 15.9994
O 9.03326 11.4772 13.242 0 0 0 51.1154 16.8091 -32.8521 15.9994
350
Timestep=100 Time=100.000000 pbc="T T T" Lattice="15.6782 0 0 -7.04085 13.5443 0 -1.01441 0.675028 17.6383" Potential_energy=34.460319998457805 Temperature=0 Stress="9583.405020630258 4079.9761962213747 -525.9368994188924 4079.9761962213747 11811.8912270273 853.1599872225655 -525.9368994188924 853.1599872225655 12876.107106890915" Properties=species:S:1:pos:R:3:vel:R:3:forces:R:3:mass:R:1
Si 14.1127 1.84627 3.30276 0 0 0 0.132265 0.366811 -0.190029 28.0855
Si 0.772396 1.93246 16.4397 0 0 0 -0.159865 0.425768 -0.323938 28.0855
Si -5.4769 13.796 7.62911 0 0 0 -0.873353 -0.560509 0.370775 28.0855
Si 13.6903 3.04665 8.71687 0 0 0 -0.253303 -0.599527 -1.07828 28.0855
Si 0.593324 2.12135 5.5518 0 0 0 -0.663401 1.53139 0.249019 28.0855
Si 2.62742 0.62602 13.0886 0 0 0 0.685095 -0.0325367 -0.512005 28.0855
Si -0.853568 3.32607 14.4173 0 0 0 0.127186 -0.729725 0.305201 28.0855
Si 0.103098 2.67506 0.9569 0 0 0 0.250942 -0.76816 0.165316 28.0855
Si 10.8892 5.99216 3.60608 0 0 0 -0.336384 -0.198948 0.088121 28.0855
Si -2.41586 5.45188 17.0003 0 0 0 0.686738 -0.0692946 0.948022 28.0855
Si 0.46422 4.48691 7.74944 0 0 0 -2.69599 -0.666187 -1.37712 28.0855
Si -4.15583 7.49443 10.1396 0 0 0 -0.968698 -0.110968 -0.321576 28.0855
Si -0.922025 7.15424 6.78278 0 0 0 0.560524 1.61284 0.498856 28.0855
Si 0.0317526 6.12437 14.2444 0 0 0 0.460246 -0.221341 -0.724293 28.0855
Si -1.36448 6.97639 11.6094 0 0 0 -1.86315 -1.31525 0.20641 28.0855
Si -2.5842 7.60194 2.26637 0 0 0 -0.121289 -0.119396 -0.125762 28.0855
Si -4.971 11.3663 3.66942 0 0 0 -0.348839 0.37738 -0.637675 28.0855
Si -2.10766 10.0066 0.484826 0 0 0 0.592543 -0.497096 -0.499959 28.0855
Si -2.50972 9.30973 8.37513 0 0 0 -1.0934 1.62023 -0.832473 28.0855
Si -7.06054 13.015 9.96238 0 0 0 1.23302 0.995104 0.520952 28.0855
Si -4.03418 11.353 6.48646 0 0 0 0.00737217 -0.405072 0.227807 28.0855
Si -2.38651 10.8222 14.3177 0 0 0 1.90758 0.194201 0.332361 28.0855
Si -3.44817 11.689 11.6684 0 0 0 0.362971 -1.23955 -0.694293 28.0855
Si 3.2719 1.94132 3.88792 0 0 0 -0.404423 0.308003 -0.260471 28.0855
Si -0.0497555 13.438 7.15139 0 0 0 -0.323505 0.0423881 0.787219 28.0855
Si 3.71843 2.06968 8.38204 0 0 0 -0.319216 1.26778 -0.418806 28.0855
Si 6.04022 1.38338 4.74155 0 0 0 0.411467 0.493535 0.642289 28.0855
Si 8.12837 0.944263 14.3935 0 0 0 -0.0964714 0.4429 1.27352 28.0855
Si 3.07719 3.84392 15.9246 0 0 0 0.366366 0.541812 -0.0663427 28.0855
Si 6.78936 2.82338 12.3239 0 0 0 -0.129278 0.407001 -0.996828 28.0855
Si 4.45064 4.48241 2.73182 0 0 0 0.38447 -0.0218955 0.264294 28.0855
Si 1.73473 7.23055 5.30052 0 0 0 0.696023 -0.0919414 -1.0906 28.0855
Si 3.4425 6.73074 0.962024 0 0 0 0.521866 0.640859 0.981374 28.0855
Si 5.7732 3.48616 6.80261 0 0 0 -0.353762 -0.593877 0.512861 28.0855
Si 1.15931 6.66856 9.88899 0 0 0 -3.98232 -4.15768 -7.61637 28.0855
Si 4.32361 6.12417 6.39544 0 0 0 0.745739 1.10752 0.0833783 28.0855
Si 4.7807 4.84207 13.5872 0 0 0 0.155749 -0.483786 -0.325734 28.0855
Si -0.192595 7.3986 17.0599 0 0 0 0.216943 -0.378713 -0.483896 28.0855
Si 3.84589 7.17564 11.8557 0 0 0 -5.80605 -1.71237 -3.95875 28.0855
Si 2.52807 9.03346 2.82818 0 0 0 1.14313 -0.311801 0.626968 28.0855
Si 2.03341 9.41338 8.91225 0 0 0 0.140912 -0.558616 0.404069 28.0855
Si -1.58156 12.0438 9.30284 0 0 0 -0.420131 0.0172608 0.262981 28.0855
Si 1.1908 10.894 6.51904 0 0 0 -0.133413 -0.476271 -0.0444644 28.0855
Si 3.32606 9.55429 13.9761 0 0 0 -0.829009 -0.0792567 -1.4274 28.0855
Si 1.80719 11.9705 12.9082 0 0 0 0.312434 -0.551097 -0.0955939 28.0855
Si 4.7102 13.5529 3.00206 0 0 0 -0.332911 0.456266 -0.415115 28.0855
Si 7.988 1.80706 2.54135 0 0 0 -0.714712 1.28934 0.0795178 28.0855
Si 9.42515 3.35735 15.3868 0 0 0 0.750363 0.905367 -1.39615 28.0855
Si 11.3556 3.27273 10.5535 0 0 0 0.769386 0.395302 0.412618 28.0855
Si 9.063 4.47649 1.70457 0 0 0 -0.769152 0.327822 0.291511 28.0855
Si 6.35906 6.24788 4.18076 0 0 0 0.0815465 0.293092 0.0355222 28.0855
Si 8.94846 7.11731 0.166757 0 0 0 -0.644598 0.430608 -0.801476 28.0855
Si 10.151 6.10245 7.88308 0 0 0 -0.684491 -0.466855 -0.230197 28.0855
Si 6.5585 8.31963 10.8039 0 0 0 -1.92 -0.312419 -1.11984 28.0855
Si 8.90518 7.36681 5.36988 0 0 0 0.225388 -0.765848 0.169931 28.0855
Si 10.5533 4.9346 12.9635 0 0 0 -1.40946 -0.848021 0.231674 28.0855
Si 9.17101 7.6146 12.2923 0 0 0 -1.55779 0.208072 -0.189513 28.0855
Si 9.86919 9.58796 1.41754 0 0 0 -0.720482 0.406011 1.08151 28.0855
Si 3.32174 11.3311 4.44908 0 0 0 -0.008676 0.504802 -0.27625 28.0855
Si 6.03974 11.3674 1.47806 0 0 0 -0.0655323 1.69491 0.0972361 28.0855
Si 7.21176 10.6014 8.9707 0 0 0 -0.387218 0.45642 0.763836 28.0855
Si 2.40342 12.1298 10.1139 0 0 0 0.219883 0.30254 -0.458046 28.0855
Si 5.49695 11.3705 6.58056 0 0 0 -0.132863 0.204889 0.297904 28.0855
Si 9.16845 10.329 13.6705 0 0 0 -0.256374 -0.352709 0.293207 28.0855
Si 3.84992 11.3005 16.4874 0 0 0 -0.422221 -0.199851 -0.581195 28.0855
Si 7.66163 12.6034 12.6836 0 0 0 -0.466994 -0.194488 -0.454398 28.0855
C 12.8813 3.09406 2.64884 0 0 0 -0.108866 0.228893 0.62839 12.0107
C -6.01365 13.7061 16.9601 0 0 0 -0.746597 -0.11567 1.2578 12.0107
C 2.70009 2.04338 11.8902 0 0 0 -0.52715 0.242999 0.199487 12.0107
C -0.419102 3.10134 12.6207 0 0 0 -0.615307 0.0317445 0.0851612 12.0107
C 12.0074 5.3544 4.95381 0 0 0 -0.0948678 0.0927122 -0.239228 12.0107
C 11.5146 5.91808 17.1052 0 0 0 -0.765879 1.12494 0.338335 12.0107
C -2.49345 8.73269 3.75394 0 0 0 0.351716 -0.588932 0.741705 12.0107
C -3.12573 9.11307 14.3846 0 0 0 0.707074 0.670245 -0.213718 12.0107
C -0.773596 8.72178 11.8598 0 0 0 0.64423 -0.836945 -0.0257129 12.0107
C 3.50462 1.11025 2.22703 0 0 0 -0.0199809 0.0420254 -0.452901 12.0107
C 4.06413 0.666675 14.2539 0 0 0 0.358484 -0.842625 -0.24016 12.0107
C 4.67234 3.38899 16.7991 0 0 0 -0.00910466 0.493109 -0.676905 12.0107
C 6.23297 1.69941 10.9891 0 0 0 0.853515 -1.65524 -0.45441 12.0107
C 7.35065 4.33553 11.4171 0 0 0 0.156164 -0.432688 -0.380188 12.0107
C 0.60255 4.03219 2.04357 0 0 0 -0.384695 0.171956 -0.280789 12.0107
C 1.02949 5.93633 4.24112 0 0 0 0.31691 0.696455 -0.581876 12.0107
C 3.9347 7.33602 17.4779 0 0 0 0.5921 -0.40457 -0.172564 12.0107
C 0.748378 9.4378 2.57275 0 0 0 -0.719865 0.639475 -0.811046 12.0107
C 5.16427 6.90497 7.84216 0 0 0 0.194772 -0.0769717 -0.0485893 12.0107
C 1.70523 9.05833 14.5825 0 0 0 0.0320681 0.186182 0.224195 12.0107
C 8.56264 0.655995 1.18476 0 0 0 -1.07482 -0.417404 -0.785148 12.0107
C 7.81721 4.26847 15.4697 0 0 0 0.143245 -0.397119 -1.60697 12.0107
C 10.2988 2.45877 9.23701 0 0 0 -0.0419332 0.189694 0.538816 12.0107
C 11.7633 1.89832 11.7405 0 0 0 0.420267 0.0157295 0.522795 12.0107