350
Timestep=0 Time=0.000000 pbc="T T T" Lattice="15.2382 0 0 -6.26274 14.5028 0 -0.448186 -0.641994 17.0085" Potential_energy=1272.689039980962 Temperature=0 Stress="105792.60377798325 -167.8714945442629 -3308.8395204963863 -167.8714945442629 92513.98769144998 -991.461253652364 -3308.8395204963863 -991.461253652364 98037.8503212559" Properties=species:S:1:pos:R:3:vel:R:3:forces:R:3:mass:R:1
Si -4.03532 13.37 2.59606 0 0 0 -29.464 -20.1385 -5.13693 28.0855
Si -0.90824 2.74771 3.49975 0 0 0 47.5894 -18.095 10.7473 28.0855
Si 1.05503 2.34567 16.6462 0 0 0 -10.2391 -58.804 15.5154 28.0855
Si 2.78702 -0.01612 7.39082 0 0 0 4.96019 9.23368 1.3025 28.0855
Si 13.8153 1.49277 9.72226 0 0 0 -25.3923 50.3803 -16.9149 28.0855
Si 2.52739 -0.1608 12.8736 0 0 0 -112.184 11.8737 -13.4777 28.0855
Si 13.6448 2.0968 14.7597 0 0 0 38.5333 -23.0152 -25.8096 28.0855
Si 1.09453 2.04739 11.1757 0 0 0 -55.895 -0.195291 -7.29667 28.0855
Si 0.44234 4.97099 1.82464 0 0 0 -4.23986 -18.2943 8.11729 28.0855
Si 11.9966 6.3985 5.20353 0 0 0 -7.24439 4.67254 12.5606 28.0855
Si -0.05115 7.49018 0.02024 0 0 0 -39.9263 -11.5811 -48.0272 28.0855
Si -0.58608 6.3448 6.58741 0 0 0 -53.8977 5.00224 22.425 28.0855
Si -0.20292 4.19388 13.235 0 0 0 -15.7834 -54.6291 15.5755 28.0855
Si -1.15781 6.58386 11.3541 0 0 0 -22.7802 -63.5589 0.888277 28.0855
Si -1.72514 9.6468 1.34025 0 0 0 -19.3114 -13.2296 -4.11371 28.0855
Si -3.06628 11.729 16.8877 0 0 0 -38.1521 -41.8933 47.8558 28.0855
Si -1.75919 9.00269 7.72026 0 0 0 -59.7967 -44.7799 57.4745 28.0855
Si -4.93963 12.4234 8.9579 0 0 0 10.4247 54.1862 -23.5383 28.0855
Si -2.77021 8.97435 12.3135 0 0 0 -60.4933 -52.7926 -40.8082 28.0855
Si 9.46147 11.3513 15.4449 0 0 0 -48.8351 14.8826 37.6842 28.0855
Si -2.74092 11.9437 11.1212 0 0 0 -45.0801 -19.7846 -56.716 28.0855
Si 4.2818 1.06414 3.2584 0 0 0 -4.58823 48.4884 -38.5733 28.0855
Si 6.17853 2.96487 0.20664 0 0 0 7.62716 -3.36589 25.1142 28.0855
Si 1.13967 13.5389 7.13261 0 0 0 42.5953 -18.8857 -5.60049 28.0855
Si 4.25812 1.9065 9.02122 0 0 0 20.6382 52.6686 17.1278 28.0855
Si 6.69334 1.3915 5.2867 0 0 0 -1.43403 40.5673 -4.04213 28.0855
Si 0.59677 13.7113 12.9816 0 0 0 84.266 -8.42342 -22.5305 28.0855
Si 3.64232 1.84989 14.9814 0 0 0 -11.6811 41.9221 -18.69 28.0855
Si 6.70064 1.24905 10.758 0 0 0 13.2778 45.476 -11.1754 28.0855
Si 1.53433 6.50225 4.28871 0 0 0 -71.7234 43.1683 -1.93052 28.0855
Si 5.37056 8.69095 0.22909 0 0 0 6.89936 -40.6449 2.94984 28.0855
Si 5.36351 3.65978 6.80597 0 0 0 16.8716 12.8267 43.1911 28.0855
Si 1.55887 6.57578 9.74476 0 0 0 67.0478 -44.7242 -8.33106 28.0855
Si 4.21268 6.22656 5.81534 0 0 0 -3.97045 -17.1339 2.28988 28.0855
Si 2.33436 7.24664 15.5279 0 0 0 26.6833 21.6456 -55.9837 28.0855
Si 3.96844 7.43055 11.3642 0 0 0 -5.00018 22.7597 -58.9276 28.0855
Si 3.81605 10.6341 1.85319 0 0 0 16.9896 -19.3069 7.30993 28.0855
Si -0.60183 11.2975 3.7201 0 0 0 24.7996 20.8078 -8.66159 28.0855
Si 2.71824 12.9406 0.13488 0 0 0 58.1716 -26.8422 3.37649 28.0855
Si 2.8461 8.26183 7.52623 0 0 0 24.1534 -34.437 -37.8478 28.0855
Si -0.36838 11.5278 9.09341 0 0 0 6.49165 -35.6145 43.6315 28.0855
Si 1.65523 10.9718 5.65004 0 0 0 11.8141 24.204 40.5722 28.0855
Si 2.84524 9.36553 13.4232 0 0 0 15.188 -19.6295 -6.93563 28.0855
Si -0.46783 12.3739 15.4756 0 0 0 21.2315 -58.5271 -35.7345 28.0855
Si 1.56097 11.2236 11.424 0 0 0 68.5211 66.7573 0.145187 28.0855
Si 13.4545 0.86489 1.2591 0 0 0 19.5671 36.9889 -41.8123 28.0855
Si 9.51072 2.04912 3.97058 0 0 0 18.5696 55.6076 -35.3158 28.0855
Si 11.4614 2.48808 16.9335 0 0 0 92.6586 -2.79167 -48.1349 28.0855
Si 6.64827 14.2189 7.27307 0 0 0 -114.73 10.9068 -6.35933 28.0855
Si 9.25275 0.53152 9.02216 0 0 0 27.0419 19.2822 0.971729 28.0855
Si 12.0965 2.01665 5.45207 0 0 0 -40.0522 -37.6063 19.8842 28.0855
Si 8.54989 2.21 15.8708 0 0 0 32.1212 -57.6461 10.2379 28.0855
Si 10.3862 4.65161 3.15463 0 0 0 6.41102 -24.2456 -17.9059 28.0855
Si 6.96476 6.35893 4.49021 0 0 0 -25.0917 -60.55 8.9509 28.0855
Si 9.08236 6.48397 1.08434 0 0 0 25.6682 -41.9744 7.61831 28.0855
Si 10.3736 3.27878 7.80685 0 0 0 45.0249 4.24505 43.9902 28.0855
Si 9.27681 5.92465 6.70801 0 0 0 22.0692 12.6059 35.3211 28.0855
Si 9.43437 4.17509 13.6003 0 0 0 14.9025 37.4656 26.8712 28.0855
Si 6.88852 7.79972 14.7865 0 0 0 13.0667 -66.4203 -13.3198 28.0855
Si 8.7012 8.26071 10.4331 0 0 0 -42.6875 -3.07612 -5.47335 28.0855
Si 8.33594 8.6834 2.95227 0 0 0 27.5428 -28.421 22.9895 28.0855
Si 4.99915 12.3797 4.3439 0 0 0 25.9318 56.3742 41.6446 28.0855
Si 7.12648 11.3605 6.28003 0 0 0 5.06709 -8.40394 5.54396 28.0855
Si 8.14327 9.93036 13.0213 0 0 0 -34.9312 -4.53422 -6.38925 28.0855
Si 4.47926 11.6736 14.9258 0 0 0 24.4484 -61.0439 39.5533 28.0855
Si 7.23884 12.1286 11.0351 0 0 0 28.728 -3.93627 -37.9981 28.0855
C -4.41198 11.7613 3.41735 0 0 0 -18.7807 -2.66427 -8.56515 12.0107
C 1.87224 1.45982 0.57494 0 0 0 5.04491 -8.50118 0.701858 12.0107
C 1.40702 0.83518 6.48895 0 0 0 -4.1045 3.92577 -5.63239 12.0107
C -0.98647 3.01906 8.74784 0 0 0 -2.16902 9.17509 -5.18741 12.0107
C 12.3664 1.61785 10.8515 0 0 0 -1.04076 3.62311 4.95364 12.0107
C -2.66813 5.83802 10.5961 0 0 0 -9.96152 -1.77382 -4.53692 12.0107
C -3.10354 8.42603 1.28382 0 0 0 -10.9436 -8.6597 -2.64443 12.0107
C -3.19108 9.58568 6.70055 0 0 0 -6.46901 3.90376 0.484121 12.0107
C 8.65526 12.9924 15.1098 0 0 0 -3.91896 2.77005 7.87677 12.0107
C 8.718 10.5594 16.9453 0 0 0 -7.97079 2.95235 5.26487 12.0107
C 3.4815 2.68895 3.6282 0 0 0 -6.16421 11.3557 1.65826 12.0107
C 5.3499 4.50247 0.83481 0 0 0 -6.87174 7.32489 4.01291 12.0107
C 3.91529 3.35867 10.1057 0 0 0 8.73408 10.8602 3.67304 12.0107
C 4.46071 2.98129 13.781 0 0 0 6.89022 -2.42962 -3.78992 12.0107
C 6.98587 2.953 11.3992 0 0 0 5.0296 7.7502 1.72013 12.0107
C 6.28059 4.71154 8.01876 0 0 0 2.97369 4.24788 6.5532 12.0107
C 2.83376 5.84934 14.4405 0 0 0 5.91956 -2.99054 -5.05461 12.0107
C 5.36715 6.24293 11.5508 0 0 0 3.62513 -4.10325 -1.01526 12.0107
C 2.9791 9.1674 2.56129 0 0 0 -6.01892 -8.65275 5.28379 12.0107
C 0.07949 12.5341 2.52719 0 0 0 3.63169 11.4197 -0.707578 12.0107
C -1.54087 12.0632 5.1268 0 0 0 0.620733 15.9452 1.84668 12.0107
C 2.99248 14.319 1.32375 0 0 0 -3.16851 -9.17588 -0.623311 12.0107
C 3.86549 9.74564 7.95972 0 0 0 8.19723 4.47665 1.99934 12.0107
C -3.13135 8.69373 14.1091 0 0 0 -9.70633 -7.21634 4.22672 12.0107
C -0.54603 10.6951 14.7386 0 0 0 0.12928 -9.80961 -6.6168 12.0107
C 8.60041 -0.25289 13.2529 0 0 0 6.05391 1.51737 3.4771 12.0107
C 10.0953 3.51581 11.9908 0 0 0 4.16629 2.41851 4.88445 12.0107
C 10.8498 5.01028 14.4814 0 0 0 8.66857 2.82742 -6.87192 12.0107
C 8.62409 7.31824 15.1874 0 0 0 4.78053 -2.72113 -4.3585 12.0107
C 10.0266 8.74031 9.211 0 0 0 -2.36718 -0.304779 -1.38196 12.0107
C 7.0237 8.66821 9.7252 0 0 0 1.05296 -3.40986 -5.70455 12.0107
C 8.86362 6.45002 10.8283 0 0 0 3.1159 0.0525362 -9.23448 12.0107
C 7.51367 10.3208 2.72929 0 0 0 -1.66177 4.55759 8.68483 12.0107
C 9.73193 8.70184 4.16052 0 0 0 -1.6128 3.96459 6.64323 12.0107
C 6.6161 13.619 1.28994 0 0 0 0.124556 -13.5123 -5.17859 12.0107
C 5.3084 13.0649 14.0206 0 0 0 6.63154 2.04692 -0.66911 12.0107
C 5.49769 12.0114 10.3946 0 0 0 -5.07057 -2.39891 -2.34726 12.0107
H 0.29954 2.66558 4.33819 0 0 0 -1.90837 -0.021312 -0.147833 1.00794
H -5.33316 14.0577 2.38866 0 0 0 3.80269 -13.3344 6.86725 1.00794
H 4.02282 -0.10291 6.59321 0 0 0 -6.49943 6.27484 2.38975 1.00794
H 13.7654 0.83051 14.0218 0 0 0 1.9917 2.8156 -0.368165 1.00794
H -1.47176 6.573 15.9505 0 0 0 3.37142 1.68255 1.21571 1.00794
H -0.36954 5.62519 7.84553 0 0 0 -5.07156 1.95885 -4.36163 1.00794
H -2.88945 7.75449 4.77553 0 0 0 1.71859 -4.60551 -3.10946 1.00794
H -2.16578 8.31068 8.96817 0 0 0 0.992465 9.0001 -7.55093 1.00794
H 9.54197 11.3082 8.34683 0 0 0 0.637551 8.69478 -0.260596 1.00794
H -3.85173 8.47994 11.4368 0 0 0 8.88969 1.47066 13.2066 1.00794
H -5.01278 13.6937 13.1925 0 0 0 12.7988 5.36654 -8.98662 1.00794
H 4.75028 0.9473 1.85826 0 0 0 -2.36625 -0.572684 9.48045 1.00794
H 6.56506 2.01151 1.27611 0 0 0 0.18917 9.8205 -1.60283 1.00794
H 1.59148 2.7056 9.9738 0 0 0 -23.3682 -13.2282 0.235216 1.00794
H 5.84227 7.72498 1.23497 0 0 0 -1.28542 2.24156 -0.833681 1.00794
H 1.75722 5.30307 9.02209 0 0 0 -11.7296 14.0897 -5.6191 1.00794
H 0.59584 4.49295 14.4224 0 0 0 -7.88635 -2.72795 0.0869001 1.00794
H 4.16421 8.41097 10.2753 0 0 0 -5.42481 -11.2073 16.0394 1.00794
H 1.02809 7.80455 3.84372 0 0 0 -4.2129 -7.49422 3.31577 1.00794
H 2.03733 8.4384 6.29527 0 0 0 6.78797 -11.6806 14.8408 1.00794
H 3.03577 10.6132 5.25882 0 0 0 -11.8395 -3.75378 2.98491 1.00794
H 2.87448 11.8359 11.156 0 0 0 -12.3522 -2.6077 2.48794 1.00794
H 14.4623 1.0431 0.19431 0 0 0 -8.59921 -6.9937 6.86083 1.00794
H 9.49647 1.85924 2.52406 0 0 0 0.854591 20.2868 14.506 1.00794
H 5.22225 13.8824 7.47409 0 0 0 6.75278 -0.41495 -2.08752 1.00794
H 10.4906 0.0449 9.63686 0 0 0 -2.42962 -0.188283 -3.45463 1.00794
H 8.48334 0.7444 15.7807 0 0 0 -1.7081 3.76625 3.03526 1.00794
H 12.4678 4.40318 0.41082 0 0 0 2.33943 -1.798 1.09626 1.00794
H 11.1133 3.83955 2.18005 0 0 0 -16.6863 14.3212 39.6577 1.00794
H 6.65876 5.12867 3.74287 0 0 0 0.983531 1.71448 1.60406 1.00794
H 7.89594 6.01676 0.33398 0 0 0 3.02364 2.0794 2.02138 1.00794
H 11.0884 3.84559 8.96326 0 0 0 -5.73455 1.10526 -2.37864 1.00794
H 8.7988 6.7833 7.79908 0 0 0 0.269753 -3.22203 -5.88409 1.00794
H 6.12515 6.67111 14.201 0 0 0 7.12519 3.45352 8.55863 1.00794
H 10.337 6.34525 0.31214 0 0 0 -10.9178 2.01101 19.5424 1.00794
H 8.28853 5.11064 13.4265 0 0 0 8.9925 -5.90593 2.51755 1.00794
H 6.0361 13.3564 3.93386 0 0 0 -6.20613 -0.909464 5.59453 1.00794
H 3.88324 13.0428 5.04853 0 0 0 6.80717 1.96334 -2.63066 1.00794
H 1.26055 10.3775 6.94096 0 0 0 -5.48138 9.16388 -11.4784 1.00794
H 8.29458 10.9475 5.47071 0 0 0 -8.96126 3.83829 5.41008 1.00794
H 6.91676 10.4524 7.42819 0 0 0 2.23754 12.6432 -23.2746 1.00794
H 5.45824 10.8785 15.702 0 0 0 -1.53917 5.07419 -4.14715 1.00794
H -5.78488 13.5509 9.3877 0 0 0 3.84089 -4.58971 -3.76467 1.00794
H 7.6251 13.5151 11.3871 0 0 0 -3.52075 -8.91501 -2.12979 1.00794
H 8.17442 11.5679 10.0234 0 0 0 -39.2777 -7.4417 23.9629 1.00794
H -3.55343 11.0872 3.48761 0 0 0 -2.06952 1.48708 -8.99385 1.00794
H 10.0678 11.2721 2.79308 0 0 0 19.5086 -0.607055 -5.38121 1.00794
H -4.84326 11.9005 4.41949 0 0 0 -2.53493 5.58806 5.20866 1.00794
H 2.93419 1.47721 0.85616 0 0 0 -5.09843 5.14673 -7.42395 1.00794
H 1.27154 -0.087624 16.9896 0 0 0 8.7543 7.28943 10.6415 1.00794
H 1.26263 1.37936 1.48042 0 0 0 -2.84832 18.0678 -0.762815 1.00794
H 0.48016 0.80942 7.0762 0 0 0 -0.290171 -2.82164 4.8697 1.00794
H 1.21125 0.35855 5.5187 0 0 0 1.28887 -6.1752 -4.98253 1.00794
H 1.66557 1.88785 6.30423 0 0 0 3.11986 4.74345 2.15659 1.00794
H 13.4104 3.36911 8.1369 0 0 0 -2.60692 -0.780131 0.757588 1.00794
H -0.14654 2.81112 8.06965 0 0 0 3.46759 -2.57108 -2.31529 1.00794
H -0.67511 3.84672 9.39912 0 0 0 2.26298 -0.0460653 7.07768 1.00794
H 12.131 0.63039 11.2711 0 0 0 -0.784454 -5.62599 1.65445 1.00794
H 11.4705 2.01763 10.3714 0 0 0 4.62583 -0.609103 -13.5346 1.00794
H 12.6306 2.27482 11.6899 0 0 0 10.6193 -4.6561 -0.239433 1.00794
H -2.46968 4.81346 10.2587 0 0 0 2.28045 -2.62123 2.12196 1.00794
H -3.02244 6.41686 9.73418 0 0 0 2.11507 0.825881 -3.03774 1.00794
H 11.7603 5.79234 11.3335 0 0 0 19.646 -0.720972 7.07085 1.00794
H -2.90392 7.56769 1.94089 0 0 0 4.54623 -3.20325 5.22419 1.00794
H -3.20967 8.04957 0.25533 0 0 0 0.871181 -0.16501 -6.06785 1.00794
H 11.1727 8.86346 1.57194 0 0 0 3.25033 10.8003 1.91376 1.00794
H -3.99897 8.84816 6.68184 0 0 0 -1.68756 -2.94558 2.9738 1.00794
H -2.87851 9.77678 5.66732 0 0 0 3.14444 0.429209 -4.23946 1.00794
H -3.58247 10.5254 7.11224 0 0 0 -0.432782 0.328312 1.91582 1.00794
H 7.71948 13.0767 15.6759 0 0 0 -3.12573 -2.92792 3.01794 1.00794
H 8.41884 13.1082 14.0466 0 0 0 -0.110442 -4.62626 -3.04172 1.00794
H -5.94235 13.8327 15.3957 0 0 0 -4.93099 -6.16356 -17.081 1.00794
H 9.71101 10.3126 0.27977 0 0 0 9.0545 0.655468 -0.800958 1.00794
H 7.67865 10.262 16.7479 0 0 0 -1.82164 2.29988 -9.71069 1.00794
H 9.14993 11.932 0.75693 0 0 0 1.71684 4.76128 0.520138 1.00794
H 3.0709 2.71102 4.64573 0 0 0 -1.24051 -5.16471 5.07808 1.00794
H 2.65914 2.88931 2.93089 0 0 0 -3.98595 -2.13484 -4.73704 1.00794
H 4.19806 3.51613 3.54816 0 0 0 8.49472 1.86598 -2.71914 1.00794
H 5.21604 5.23192 0.02226 0 0 0 0.881245 1.31615 -7.40918 1.00794
H 5.95151 4.98308 1.61785 0 0 0 5.00951 -0.673881 1.69088 1.00794
H 4.35578 4.28539 1.24885 0 0 0 -5.10946 -5.73763 1.28731 1.00794
H 3.65855 3.09091 11.134 0 0 0 6.60262 -6.50339 -11.4798 1.00794
H 3.13163 4.0021 9.69532 0 0 0 16.8345 -1.74532 -3.15247 1.00794
H 4.838 3.94532 10.1404 0 0 0 -17.1298 -4.00689 -4.368 1.00794
H 3.73326 3.4596 13.1152 0 0 0 -7.61584 2.38734 11.7985 1.00794
H 5.15697 2.37879 13.1869 0 0 0 -3.72759 -7.51382 7.0225 1.00794
H 5.03503 3.76619 14.2913 0 0 0 2.72891 3.42097 6.76271 1.00794
H 7.54398 3.57111 10.6866 0 0 0 -1.67928 -1.21643 -6.61478 1.00794
H 7.56898 2.87349 12.3231 0 0 0 -19.1731 -13.469 -9.85407 1.00794
H 6.06091 3.47231 11.654 0 0 0 10.346 -2.7554 5.27638 1.00794
H 6.8088 5.52183 7.50541 0 0 0 -17.395 -1.46973 3.12727 1.00794
H 7.00672 4.14389 8.61059 0 0 0 1.82434 -8.17642 -0.365712 1.00794
H 5.55106 5.19144 8.68231 0 0 0 -0.449346 4.39652 -17.6503 1.00794
H 2.7028 4.89331 14.9605 0 0 0 2.40607 2.31506 6.52478 1.00794
H 3.89975 5.97659 14.211 0 0 0 4.1826 -1.18942 -0.25329 1.00794
H 2.28321 5.81875 13.4935 0 0 0 -5.70429 5.39425 -3.22142 1.00794
H 5.72298 5.87886 10.5803 0 0 0 1.8608 9.71242 7.22531 1.00794
H 5.06622 5.38471 12.1653 0 0 0 -5.71426 0.000311692 4.10441 1.00794
H 6.20178 6.74136 12.0535 0 0 0 -4.10997 7.58637 -2.02913 1.00794
H 2.65881 8.49244 1.75676 0 0 0 -3.41805 -2.62123 -3.4235 1.00794
H 2.09346 9.46265 3.13183 0 0 0 14.3781 0.902585 -16.3248 1.00794
H 3.65919 8.61656 3.22595 0 0 0 7.58632 1.31975 2.38122 1.00794
H -0.69279 13.1613 2.06461 0 0 0 -6.25068 -2.32571 1.49172 1.00794
H 0.61318 12.013 1.72429 0 0 0 -8.72915 -7.90003 4.29522 1.00794
H 0.78579 13.2006 3.04061 0 0 0 4.32505 2.05222 5.4388 1.00794
H -1.35362 11.5263 6.06307 0 0 0 2.57937 0.046029 -1.36317 1.00794
H -2.61994 12.1579 5.00745 0 0 0 7.60754 2.1255 7.44563 1.00794
H -1.15197 13.0823 5.24212 0 0 0 2.36532 -1.19923 -0.793115 1.00794
H 10.0201 0.51664 0.97006 0 0 0 5.76505 -3.71061 -13.1355 1.00794
H 3.30324 13.9443 2.30759 0 0 0 0.364945 -6.91032 2.77789 1.00794
H 8.3151 0.36613 1.46015 0 0 0 -9.1568 -1.03575 -3.20729 1.00794
H 4.25766 10.2239 7.05225 0 0 0 1.62521 -2.06918 0.10002 1.00794
H 4.724 9.44344 8.57068 0 0 0 3.44974 2.23529 -6.30535 1.00794
H 3.27859 10.4812 8.52554 0 0 0 -6.37275 3.53165 2.72963 1.00794
H -2.23746 8.31509 14.6194 0 0 0 5.78532 -1.06255 1.23013 1.00794
H -3.92424 7.94139 14.2075 0 0 0 3.34909 9.51412 0.158653 1.00794
H -3.47627 9.60036 14.6135 0 0 0 3.45675 -1.55664 -6.24549 1.00794
H 0.35888 10.4394 14.1847 0 0 0 -0.0672699 7.23059 3.97538 1.00794
H -1.38523 10.6456 14.0382 0 0 0 4.30986 10.8509 7.97394 1.00794
H -0.68474 9.948 15.5297 0 0 0 0.680212 -3.69997 4.65911 1.00794
H 2.92436 13.976 12.3661 0 0 0 -2.35307 1.47621 -6.79895 1.00794
H 2.77499 13.7721 14.1337 0 0 0 -11.3096 1.49894 -0.510303 1.00794
H 8.68194 0.83192 13.3801 0 0 0 -5.12576 -6.43373 -10.1011 1.00794
H 9.94327 2.43013 11.9512 0 0 0 -5.0075 -6.41886 3.17755 1.00794
H 11.1717 3.70454 11.946 0 0 0 -2.78652 11.515 5.78091 1.00794
H 9.63694 3.96301 11.1049 0 0 0 -0.419388 1.9856 -1.75604 1.00794
H 11.099 5.9244 13.9216 0 0 0 0.202484 -9.94796 -4.95852 1.00794
H 11.7401 4.37314 14.4474 0 0 0 -5.68797 2.14983 2.47491 1.00794
H 10.6532 5.30303 15.5188 0 0 0 2.20119 -8.46364 -9.74241 1.00794
H 9.23143 7.34782 14.2744 0 0 0 -4.04027 1.09268 -6.22638 1.00794
H 8.655 6.28944 15.5582 0 0 0 -10.0104 3.88517 -23.3715 1.00794
H 9.08053 7.9833 15.9283 0 0 0 0.181532 3.06339 0.245731 1.00794
H 9.57726 9.01473 8.24825 0 0 0 -7.59498 0.10903 -3.81576 1.00794
H 10.7223 7.91117 9.03415 0 0 0 -1.01376 -5.89002 0.919879 1.00794
H 10.6061 9.59564 9.57299 0 0 0 1.26079 -2.76008 4.21736 1.00794
H 6.70617 7.91861 8.98472 0 0 0 2.75741 -6.57676 -3.38393 1.00794
H 7.05309 9.64099 9.21837 0 0 0 4.9181 -4.93138 18.1115 1.00794
H 6.25653 8.71808 10.5063 0 0 0 14.5471 5.76573 6.39929 1.00794
H 8.80737 5.85066 9.90821 0 0 0 -2.30578 -0.788107 -4.6113 1.00794
H 8.10668 6.0789 11.526 0 0 0 0.963129 5.03486 -3.48734 1.00794
H 9.85047 6.27786 11.2751 0 0 0 -16.3726 9.40449 2.52032 1.00794
H 6.57143 10.2854 3.28633 0 0 0 1.17004 -7.40089 -0.645033 1.00794
H 7.27455 10.5574 1.69163 0 0 0 3.98272 -4.12339 -1.38174 1.00794
H 8.11821 11.132 3.15052 0 0 0 -13.5153 1.61322 4.2575 1.00794
H 10.6269 9.20472 3.78531 0 0 0 0.843048 -4.6004 -5.49108 1.00794
H 9.98512 7.6594 4.36508 0 0 0 -27.4693 17.5979 -15.8736 1.00794
H 9.44593 9.17792 5.10704 0 0 0 -3.70978 -2.35255 2.89811 1.00794
H 7.31298 12.9768 1.84151 0 0 0 7.01316 2.92539 3.59102 1.00794
H 6.5507 13.2375 0.26127 0 0 0 0.0339844 1.01931 -2.26205 1.00794
H 5.62701 13.5165 1.7448 0 0 0 -4.133 7.56587 -2.68904 1.00794
H 4.79883 13.312 13.0845 0 0 0 4.80303 -5.07395 -1.29525 1.00794
H 6.34072 12.7938 13.7863 0 0 0 -8.37862 1.36285 3.34372 1.00794
H 11.5758 -0.53316 14.6447 0 0 0 0.769212 3.36668 6.3664 1.00794
H 5.43013 12.3043 9.33806 0 0 0 4.46403 1.13292 -4.77603 1.00794
H 4.81562 12.655 10.962 0 0 0 6.8953 7.01703 3.68269 1.00794
H 5.13203 10.98 10.4811 0 0 0 0.696241 -7.10897 2.1413 1.00794
O -0.35793 2.28368 15.8107 0 0 0 -22.3991 6.20342 44.0697 15.9994
O -0.16455 1.10759 10.7295 0 0 0 -9.25472 -48.6259 8.30687 15.9994
O 2.23797 1.11612 11.8753 0 0 0 83.0512 12.6359 -34.4789 15.9994
O -0.73893 3.98208 2.41294 0 0 0 -75.8933 19.5542 -31.4395 15.9994
O 1.37778 4.22988 0.71138 0 0 0 83.5803 31.9782 -10.2998 15.9994
O -0.21975 6.28791 1.13299 0 0 0 -78.6657 19.7674 32.8633 15.9994
O -1.91752 5.70847 5.86089 0 0 0 7.44103 -73.4624 -5.49645 15.9994
O -1.54809 3.35504 13.6984 0 0 0 -31.9902 16.964 -19.2281 15.9994
O 0.64718 3.24892 12.2057 0 0 0 56.3145 33.6515 -6.31401 15.9994
O -0.65139 5.60448 12.5735 0 0 0 7.41998 66.8284 50.5615 15.9994
O -0.36545 8.9234 0.74567 0 0 0 52.551 46.9004 14.495 15.9994
O -2.06196 10.9207 0.36937 0 0 0 35.2008 -23.6081 -54.8005 15.9994
O -3.34121 13.1146 1.13062 0 0 0 -6.44099 67.2029 -16.1954 15.9994
O -0.81595 7.9483 6.85067 0 0 0 60.0465 58.8384 -38.3982 15.9994
O -3.89772 12.94 7.79093 0 0 0 25.2849 -35.0476 -33.5374 15.9994
O -1.42232 8.08988 11.9269 0 0 0 49.1134 55.199 8.43201 15.9994
O -4.14706 11.5285 15.677 0 0 0 21.5958 8.72143 -69.0236 15.9994
O -4.13909 11.8427 10.279 0 0 0 -50.8403 -55.2451 30.0865 15.9994
O -2.52352 10.5686 11.9641 0 0 0 46.2351 13.1586 73.5306 15.9994
O -2.78264 13.2257 12.1404 0 0 0 89.0477 20.1924 30.7871 15.9994
O -3.05816 14.3365 3.50196 0 0 0 3.00701 -20.8498 80.0876 15.9994
O 3.08823 0.77861 8.82732 0 0 0 -35.676 -13.4923 37.9544 15.9994
O 5.60518 0.84285 4.21799 0 0 0 4.44352 -80.0641 -24.499 15.9994
O 6.69352 0.39102 6.57472 0 0 0 -62.1114 36.606 67.4475 15.9994
O 3.1881 0.44485 14.2459 0 0 0 32.2483 -70.7774 55.3416 15.9994
O 4.70909 1.52184 16.1909 0 0 0 9.02902 -76.5685 12.3493 15.9994
O 2.2986 2.60017 15.6041 0 0 0 3.79694 73.2444 -33.9462 15.9994
O 5.63885 1.18571 9.52362 0 0 0 19.4664 -48.4948 -60.8498 15.9994
O 6.1485 0.2953 11.9714 0 0 0 -69.7616 3.68103 16.5378 15.9994
O 1.37571 5.4024 3.08733 0 0 0 68.6768 -43.4604 2.21059 15.9994
O 0.70455 6.04664 5.62903 0 0 0 49.7122 -60.745 34.2584 15.9994
O 4.47917 2.48766 7.50063 0 0 0 -32.0846 -27.9639 -28.0022 15.9994
O 6.36056 2.924 5.73339 0 0 0 42.9156 64.0384 -32.0505 15.9994
O 0.02268 6.66341 10.2383 0 0 0 -52.451 16.2234 -70.572 15.9994
O 3.13165 6.55004 4.64356 0 0 0 36.8302 47.2611 -69.1546 15.9994
O 4.29595 4.61309 6.00325 0 0 0 -43.5456 -39.7671 -25.1921 15.9994
O 3.55266 7.45862 16.5952 0 0 0 -21.8513 -46.8971 40.2897 15.9994
O 0.9999 6.90776 16.4103 0 0 0 32.4211 -50.4811 31.1301 15.9994
O 2.56937 6.61635 11.0351 0 0 0 -16.8539 -33.7308 62.1465 15.9994
O 5.07565 10.1499 0.90694 0 0 0 24.887 39.0674 -2.43684 15.9994
O -1.46322 10.1521 2.8792 0 0 0 -45.0567 -29.8893 61.7522 15.9994
O 2.79503 11.4906 0.90548 0 0 0 -72.6898 -40.6852 -10.5857 15.9994
O 1.83939 7.83913 8.75184 0 0 0 -50.6145 74.1974 11.3985 15.9994
O 3.8147 6.94925 7.22036 0 0 0 7.74309 -15.1598 61.3071 15.9994
O -0.89755 10.3312 8.13979 0 0 0 26.3675 3.83874 -70.8311 15.9994
O 0.15127 12.7537 8.15323 0 0 0 -57.9435 52.1851 14.4848 15.9994
O -1.52759 12.135 10.0527 0 0 0 2.01575 81.3335 -3.89364 15.9994
O 0.67379 10.4955 4.43204 0 0 0 -19.4461 -33.2533 -20.849 15.9994
O 1.54986 12.6081 5.85961 0 0 0 8.56564 18.1749 -66.6863 15.9994
O 2.08891 8.64504 14.6804 0 0 0 -63.7459 31.398 28.8896 15.9994
O 3.85751 8.26812 12.7721 0 0 0 62.2138 -18.0209 40.4469 15.9994
O 0.79396 12.4836 16.5003 0 0 0 -34.4506 33.8344 45.3036 15.9994
O -0.28963 13.5674 14.3484 0 0 0 -45.5247 53.5595 16.8273 15.9994
O -1.84412 12.6527 16.3409 0 0 0 5.93426 75.983 12.2408 15.9994
O 0.85124 10.908 9.9881 0 0 0 31.4832 -65.0714 -30.3864 15.9994
O 1.77094 9.83318 12.2741 0 0 0 -51.0611 -55.0841 -20.7886 15.9994
O 0.60228 12.2335 12.2622 0 0 0 -74.9826 -25.0867 17.2003 15.9994
O 14.1381 1.33816 2.68733 0 0 0 31.1268 -71.4628 30.9 15.9994
O 8.18401 1.4001 4.63271 0 0 0 16.3731 -82.7679 13.9853 15.9994
O 12.1829 2.11908 15.4967 0 0 0 -68.9922 -25.136 -45.8841 15.9994
O 12.1878 1.88064 0.9447 0 0 0 -51.115 -27.799 43.7833 15.9994
O 13.5769 0.25173 8.6511 0 0 0 53.2294 -46.4976 47.4379 15.9994
O 2.5169 13.9381 7.91353 0 0 0 58.2577 -51.1601 -20.785 15.9994
O 8.1338 0.66887 10.1942 0 0 0 20.7019 -44.8567 76.5146 15.9994
O 13.0076 2.94517 4.46327 0 0 0 -20.208 86.9407 -10.5073 15.9994
O 10.845 1.34739 4.63436 0 0 0 -1.24736 -67.8479 -17.1844 15.9994
O 13.0299 0.83551 6.0785 0 0 0 73.7892 -9.18566 -31.8947 15.9994
O 9.83963 2.64156 16.7969 0 0 0 -40.6482 52.2893 59.1464 15.9994
O 7.14788 2.77763 16.483 0 0 0 -17.5782 84.2843 -4.93815 15.9994
O 9.63042 3.67353 4.2393 0 0 0 -22.0548 9.43861 33.6504 15.9994
O 11.4868 5.59691 3.88494 0 0 0 70.7492 9.02306 -60.7733 15.9994
O 5.68385 6.79229 5.41251 0 0 0 20.9317 64.4027 33.6464 15.9994
O 9.22877 5.55348 2.44035 0 0 0 -64.2382 4.25654 23.5424 15.9994
O 9.5177 1.97066 8.2745 0 0 0 -72.0845 6.2937 -26.6096 15.9994
O 11.4967 2.91894 6.67522 0 0 0 55.674 60.9565 5.37477 15.9994
O 10.7994 6.39055 6.33087 0 0 0 32.9458 50.5854 62.1461 15.9994
O 8.26583 6.09616 5.44867 0 0 0 40.857 2.39808 -56.0397 15.9994
O 9.30936 4.3738 7.2316 0 0 0 -77.5232 -31.5201 -15.8373 15.9994
O 8.79089 2.86971 14.4072 0 0 0 -10.3136 -32.1498 -62.2007 15.9994
O 6.07725 8.29522 16.119 0 0 0 36.5668 71.7166 8.08725 15.9994
O 7.2014 7.62026 3.50712 0 0 0 -61.42 40.8853 -43.3455 15.9994
O 8.87776 8.05835 1.51025 0 0 0 7.42715 51.6468 -30.4669 15.9994
O 4.42226 11.6126 3.026 0 0 0 -2.84662 17.8712 -24.4258 15.9994
O 5.73873 11.3251 5.39419 0 0 0 -41.5721 -49.9557 -4.05071 15.9994
O 7.46353 12.8823 6.81059 0 0 0 73.6386 4.01658 0.472132 15.9994
O 6.94992 9.03723 13.703 0 0 0 -63.6402 9.77162 -15.1779 15.9994
O 8.90701 9.09791 11.8614 0 0 0 83.6056 -14.3888 -15.6444 15.9994
O 9.25815 10.3709 14.1274 0 0 0 69.8791 -25.5179 -1.70759 15.9994
O 3.67975 10.6741 13.8884 0 0 0 18.2571 55.1944 -55.1751 15.9994
O 3.39098 12.3409 15.9546 0 0 0 14.7562 79.9283 -9.13518 15.9994
O 7.40022 11.2406 12.4172 0 0 0 -42.5365 44.193 36.7384 15.9994
350
Timestep=66 Time=66.000000 pbc="T T T" Lattice="15.2382 0 0 -6.26274 14.5028 0 -0.448186 -0.641994 17.0085" Potential_energy=-16.639303161021076 Temperature=0 Stress="17734.596039255473 1657.1716663072737 2402.184163529115 1657.1716663072737 14315.289494499846 -1819.7141774652516 2402.184163529115 -1819.7141774652516 15151.296254778388" Properties=species:S:1:pos:R:3:vel:R:3:forces:R:3:mass:R:1
Si -3.97891 13.6862 2.43446 0 0 0 -0.565688 -0.593753 1.42605 28.0855
Si -0.892283 2.82506 3.39169 0 0 0 -1.42092 0.0546577 0.607403 28.0855
Si 1.03697 2.81317 16.5488 0 0 0 1.01101 -0.471862 0.707362 28.0855
Si -3.39137 14.0989 7.56203 0 0 0 -0.143541 0.306447 0.675945 28.0855
Si 13.7379 1.29012 9.66978 0 0 0 -1.21064 0.73527 0.229584 28.0855
Si 2.54543 0.0590982 12.6521 0 0 0 1.17986 -0.791377 -0.433677 28.0855
Si -1.48112 2.34339 14.8044 0 0 0 0.0475236 -0.421956 0.245951 28.0855
Si 0.973897 2.07109 10.9942 0 0 0 0.348139 0.54143 0.192481 28.0855
Si 0.652917 5.09306 1.96021 0 0 0 0.212132 0.432019 -1.28039 28.0855
Si 12.0828 6.14076 4.89037 0 0 0 0.0898562 0.514773 -0.429025 28.0855
Si 0.34107 7.7199 0.394118 0 0 0 0.419326 -0.240203 1.23789 28.0855
Si -0.550091 6.28254 6.38742 0 0 0 0.876656 0.385805 -0.931526 28.0855
Si -0.134703 4.18321 12.821 0 0 0 0.219599 -2.23613 1.65224 28.0855
Si -1.06572 6.63599 11.3617 0 0 0 -1.63373 -0.428439 -0.651185 28.0855
Si -1.72249 9.82555 1.30649 0 0 0 -0.467584 -2.53347 -0.853027 28.0855
Si -3.25757 11.7905 16.9574 0 0 0 1.26072 -1.71083 0.0355413 28.0855
Si -1.44834 8.9142 7.55762 0 0 0 0.732626 -1.07378 2.02016 28.0855
Si -5.16907 12.51 9.27413 0 0 0 0.376947 1.82422 -0.0851578 28.0855
Si -2.54604 9.1727 12.0342 0 0 0 0.354652 -0.770707 -0.748481 28.0855
Si 9.58115 10.9741 15.34 0 0 0 0.924005 -0.0189647 0.575447 28.0855
Si -2.87348 12.0395 11.0427 0 0 0 -1.8454 -0.282467 -1.65039 28.0855
Si 4.78249 0.767337 3.03956 0 0 0 -0.810746 1.16972 -0.607207 28.0855
Si 6.25911 3.30327 -0.0478484 0 0 0 -0.999025 -0.44927 -1.49832 28.0855
Si 0.946145 13.3449 7.26817 0 0 0 0.273621 -0.156055 -5.46233 28.0855
Si 4.50747 1.71619 8.78736 0 0 0 -0.105246 -0.232554 0.557333 28.0855
Si 6.88671 1.10911 5.33549 0 0 0 1.23982 0.238643 -3.27027 28.0855
Si 0.480112 13.643 12.8898 0 0 0 -1.36738 1.20062 2.32424 28.0855
Si 3.60324 1.84863 14.9408 0 0 0 0.125389 0.272867 -0.399981 28.0855
Si 6.93351 1.01286 10.4831 0 0 0 -0.693699 -0.0761998 -0.429344 28.0855
Si 1.68654 6.30311 4.48216 0 0 0 0.639956 -0.586078 -0.315084 28.0855
Si 5.26222 8.57559 16.9994 0 0 0 -0.0743741 0.298965 -1.3041 28.0855
Si 5.43427 3.48782 6.56181 0 0 0 -0.20265 0.339403 -0.0818243 28.0855
Si 1.57535 6.58874 10.0371 0 0 0 1.52531 -0.791713 -0.356906 28.0855
Si 4.28018 6.16581 5.92093 0 0 0 0.0817869 -0.360487 -0.452656 28.0855
Si 2.55165 7.61196 16.0603 0 0 0 -0.0194448 2.94114 -3.09156 28.0855
Si 3.72222 7.58868 11.6954 0 0 0 0.563597 -2.40922 1.59038 28.0855
Si 3.81182 10.8451 1.78095 0 0 0 2.60681 -0.742653 -1.77809 28.0855
Si -0.55875 10.6635 3.89006 0 0 0 -0.433461 -0.289801 -0.288735 28.0855
Si 2.36513 12.9029 0.0587367 0 0 0 -0.960468 0.239907 -1.81297 28.0855
Si 2.80327 7.87766 7.72583 0 0 0 1.46315 -2.88899 -0.316174 28.0855
Si -0.512928 11.3281 9.13276 0 0 0 0.052207 0.208805 -1.41073 28.0855
Si 1.61638 10.8369 5.81315 0 0 0 -0.277533 -0.0737809 -0.559614 28.0855
Si 2.9368 9.53199 13.736 0 0 0 -0.978136 -1.28278 -3.01252 28.0855
Si -0.683749 12.6169 15.5766 0 0 0 2.53798 0.256179 -0.028291 28.0855
Si 1.2091 10.9833 11.6081 0 0 0 -0.204715 1.16001 -0.208377 28.0855
Si 13.378 0.995002 1.20545 0 0 0 -0.000636934 1.12608 -1.33139 28.0855
Si 9.57041 1.7915 4.2303 0 0 0 0.221367 -0.701501 -1.87831 28.0855
Si 11.4445 2.52218 16.8472 0 0 0 0.642655 1.01183 0.49911 28.0855
Si 13.0802 -0.221641 7.06384 0 0 0 -1.18338 -0.336168 -1.34766 28.0855
Si 9.24675 0.418154 8.61156 0 0 0 -0.915041 1.29884 -1.41598 28.0855
Si 12.2554 2.14259 5.47853 0 0 0 -1.77474 0.327853 2.83258 28.0855
Si 8.62082 2.39045 15.7772 0 0 0 -1.55819 -0.17148 -0.116856 28.0855
Si 10.0518 4.48411 3.2597 0 0 0 0.250238 -0.15037 0.113216 28.0855
Si 7.14119 6.69532 5.09941 0 0 0 -2.40326 1.00965 -0.0834607 28.0855
Si 9.16676 6.54381 1.45241 0 0 0 -0.464546 1.52509 -0.923546 28.0855
Si 9.95825 3.17314 7.56039 0 0 0 -0.299536 -0.860016 -1.02015 28.0855
Si 9.60292 5.92985 6.77273 0 0 0 -0.387318 -1.00171 -0.804518 28.0855
Si 9.57236 4.08202 13.56 0 0 0 -1.05208 0.957726 -0.68804 28.0855
Si 6.66382 7.89765 14.5106 0 0 0 -0.504782 1.46664 0.840051 28.0855
Si 8.75091 8.55161 10.3353 0 0 0 0.051899 0.560934 2.61377 28.0855
Si 8.25747 8.74479 3.17542 0 0 0 0.491916 0.566933 1.12957 28.0855
Si 5.00968 12.5074 4.16639 0 0 0 0.769714 0.447367 0.936969 28.0855
Si 6.58531 11.4152 6.4429 0 0 0 0.0563824 0.496295 -0.392262 28.0855
Si 8.08362 9.92405 12.8856 0 0 0 0.963138 0.317726 0.643298 28.0855
Si 4.11369 11.9502 15.055 0 0 0 0.821676 -0.772252 -1.50449 28.0855
Si 6.81923 12.1689 11.497 0 0 0 0.756724 -0.27573 0.237356 28.0855
C -4.79444 12.1985 3.12411 0 0 0 -0.832446 0.0518902 0.626651 12.0107
C 1.67334 1.84363 0.393881 0 0 0 -0.770937 -1.67522 -0.150538 12.0107
C 1.56906 0.62166 6.70707 0 0 0 -0.0522356 0.262447 -0.130734 12.0107
C -1.16528 2.9116 8.758 0 0 0 -0.199219 1.04683 -1.13174 12.0107
C 12.1583 1.36889 10.606 0 0 0 -0.535904 1.35139 0.181756 12.0107
C -2.7204 5.96906 10.8914 0 0 0 0.31381 1.00041 -0.303485 12.0107
C -3.1756 8.83773 0.718016 0 0 0 0.124049 0.612339 1.36807 12.0107
C -3.06598 9.30512 6.73159 0 0 0 -0.623039 -0.223991 -0.0151031 12.0107
C -5.98768 12.7502 14.8986 0 0 0 0.696508 1.99379 -0.00073023 12.0107
C 8.47285 10.5999 16.7433 0 0 0 -0.570651 1.19868 2.30525 12.0107
C 3.845 2.27681 3.5945 0 0 0 0.445002 0.896393 0.064018 12.0107
C 5.34702 4.82031 0.544132 0 0 0 -0.487182 0.0583296 -0.288499 12.0107
C 4.08624 3.02891 10.0087 0 0 0 0.287393 -1.0984 -1.24191 12.0107
C 4.57172 2.83136 13.6923 0 0 0 1.13865 0.0411684 0.948688 12.0107
C 7.2971 2.66824 11.2224 0 0 0 1.02001 0.6452 0.370077 12.0107
C 6.2818 4.46308 7.91639 0 0 0 0.102872 -2.00104 0.0401461 12.0107
C 2.25108 6.24622 14.8475 0 0 0 0.286486 -0.448777 -0.269795 12.0107
C 4.96086 6.2381 11.4395 0 0 0 -0.152429 0.290502 0.308502 12.0107
C 3.3593 9.28927 2.71128 0 0 0 -0.59877 0.104397 -0.505308 12.0107
C 0.376568 11.8618 2.82081 0 0 0 0.776179 1.65396 -1.19387 12.0107
C -1.69114 11.725 4.92009 0 0 0 -1.27982 1.25659 -0.0456189 12.0107
C 2.94378 14.1944 1.23262 0 0 0 -0.210246 -0.561822 -0.464817 12.0107
C 4.11166 9.16049 7.85829 0 0 0 0.257227 0.699576 0.0431531 12.0107
C -3.05707 8.48241 13.6814 0 0 0 -0.223288 -1.61848 1.32213 12.0107
C -0.504621 10.8915 14.9552 0 0 0 -0.218021 1.26668 0.412464 12.0107