365
Timestep=0 Time=0.000000 pbc="T T T" Lattice="15.5264 0 0 -6.93461 14.1043 0 2.088 0.879508 17.4642" Potential_energy=1478.8284073847985 Temperature=0 Stress="112514.52013816987 -6306.776472354284 2012.5072332847644 -6306.776472354284 106455.69422998045 56.09071859892879 2012.5072332847644 56.09071859892879 104368.81240355287" Properties=species:S:1:pos:R:3:vel:R:3:forces:R:3:mass:R:1
Si 3.19128 1.14967 2.94275 0 0 0 -3.12324 8.70858 -19.0714 28.0855
Si 1.88371 2.75697 0.83493 0 0 0 -20.5918 -90.6763 18.9522 28.0855
Si 1.71907 2.21625 10.1084 0 0 0 11.321 19.3854 -22.4795 28.0855
Si 2.34568 3.71717 5.79052 0 0 0 -26.7479 -73.5593 -1.06427 28.0855
Si 4.60556 1.18379 14.4453 0 0 0 17.1312 0.173095 -48.4688 28.0855
Si 15.7433 2.7066 15.0565 0 0 0 26.467 -23.0193 31.064 28.0855
Si 3.44433 3.07647 12.314 0 0 0 -13.4348 -26.24 -29.8477 28.0855
Si -0.60163 4.53887 1.2653 0 0 0 22.3795 -32.8356 2.56555 28.0855
Si -2.88245 6.8494 2.97427 0 0 0 -45.7187 48.9565 -9.18192 28.0855
Si 1.81792 4.86868 8.59444 0 0 0 -94.4754 -31.574 -5.82496 28.0855
Si -0.66845 7.82451 5.13048 0 0 0 -5.8132 -20.077 32.2024 28.0855
Si 1.71266 5.10325 13.7149 0 0 0 84.0347 -14.3876 25.666 28.0855
Si 1.17294 8.00383 12.7775 0 0 0 20.6899 17.6824 -37.3004 28.0855
Si -5.34386 13.1674 4.339 0 0 0 -5.34615 -9.58248 -15.4211 28.0855
Si -1.90147 9.78242 7.12672 0 0 0 44.1453 -12.6168 4.74332 28.0855
Si -3.40776 12.1095 10.417 0 0 0 25.875 11.4661 -31.8515 28.0855
Si -2.71539 12.6196 6.03037 0 0 0 -5.98652 2.64271 -12.6966 28.0855
Si -0.19256 10.0729 14.5319 0 0 0 22.6495 -45.9673 -4.64314 28.0855
Si -3.37395 12.9422 16.1171 0 0 0 20.0923 -37.9007 -14.3078 28.0855
Si -1.87856 9.91591 11.8532 0 0 0 31.5879 -7.45423 -62.3619 28.0855
Si 7.74729 0.15003 2.44692 0 0 0 25.7552 14.5511 24.3605 28.0855
Si 5.01555 2.77635 4.73804 0 0 0 -49.4897 33.2857 -10.3999 28.0855
Si 6.70545 2.40518 0.38605 0 0 0 10.1731 12.7711 -2.70655 28.0855
Si 1.5973 13.2169 8.19347 0 0 0 -12.014 -44.2106 -47.7229 28.0855
Si 5.693 3.64288 10.226 0 0 0 -41.057 -44.2905 -33.0254 28.0855
Si 7.1223 3.03539 6.82337 0 0 0 -0.324096 -12.1692 19.0362 28.0855
Si 9.34936 0.92244 13.525 0 0 0 -18.5991 -0.26661 -18.5877 28.0855
Si 6.16781 3.20345 16.1404 0 0 0 2.24089 19.1718 -16.803 28.0855
Si 8.71565 3.08701 11.3124 0 0 0 30.7989 -0.370099 51.3011 28.0855
Si 6.27862 4.60315 2.54172 0 0 0 -83.0576 6.34082 25.6219 28.0855
Si 2.25872 7.96367 3.89519 0 0 0 27.8336 -33.5653 -42.5561 28.0855
Si 5.12613 8.61468 16.7872 0 0 0 -11.8263 3.29935 -8.2527 28.0855
Si 5.95571 5.74164 8.08316 0 0 0 6.99015 -20.7371 39.9805 28.0855
Si 2.68505 7.79646 9.37015 0 0 0 -66.4787 28.9238 19.2738 28.0855
Si 4.84816 7.48817 5.83163 0 0 0 37.223 49.4011 12.5725 28.0855
Si 5.20542 8.29585 11.2765 0 0 0 -42.1017 -73.7257 26.9031 28.0855
Si 3.63289 9.64966 1.69088 0 0 0 18.3006 -28.8768 -46.1569 28.0855
Si -0.3553 12.0301 4.01641 0 0 0 -28.3429 -35.9398 7.86801 28.0855
Si 4.31334 12.2642 16.9655 0 0 0 3.36667 -87.2495 0.989789 28.0855
Si 3.66953 9.68934 7.30774 0 0 0 26.5893 22.9085 -14.9431 28.0855
Si 2.46477 11.9943 5.56092 0 0 0 29.6565 -1.43324 72.2762 28.0855
Si 4.28405 10.6456 13.2056 0 0 0 -48.779 -29.2717 50.8838 28.0855
Si 1.36425 12.7919 15.2223 0 0 0 51 -22.9841 44.1999 28.0855
Si 2.75475 12.6188 11.6758 0 0 0 -40.8196 -12.4523 30.3301 28.0855
Si 6.05598 13.5266 1.40637 0 0 0 94.3283 -21.7421 27.8155 28.0855
Si 13.5709 2.71033 17.241 0 0 0 8.25281 16.6994 -22.6896 28.0855
Si 10.4759 1.36743 9.27331 0 0 0 -1.91697 -6.89355 -16.3691 28.0855
Si 14.106 3.82947 5.94012 0 0 0 0.773851 -21.4941 -27.8442 28.0855
Si 14.2188 1.12207 12.966 0 0 0 25.7728 7.75867 -29.1621 28.0855
Si 10.9532 2.80607 15.6036 0 0 0 -2.67828 34.41 3.84569 28.0855
Si 14.5241 3.49473 11.1928 0 0 0 44.9377 40.9853 17.8958 28.0855
Si 11.1085 4.48102 1.63639 0 0 0 -90.0796 8.94777 18.36 28.0855
Si 7.56947 6.98947 4.04973 0 0 0 19.5931 12.8506 -27.411 28.0855
Si 11.2975 7.1496 17.2492 0 0 0 11.0875 -27.8081 -29.3971 28.0855
Si 11.4434 5.18392 6.62447 0 0 0 -19.8649 -9.37781 -49.8771 28.0855
Si 7.78786 7.74081 9.58232 0 0 0 -8.46914 -14.4464 -0.174881 28.0855
Si 10.398 7.5327 5.06904 0 0 0 3.27585 -11.7685 -6.22379 28.0855
Si 7.20492 8.71596 14.7707 0 0 0 16.816 -17.0187 25.4955 28.0855
Si 9.76746 7.12675 11.6956 0 0 0 -13.1808 16.5235 26.1336 28.0855
Si 8.5563 8.67029 1.64149 0 0 0 73.45 -23.2033 -30.9292 28.0855
Si 5.30384 12.3686 4.20175 0 0 0 66.2216 -62.9477 32.1303 28.0855
Si 7.49548 11.1511 0.04859 0 0 0 48.6117 -36.7974 -39.5468 28.0855
Si 4.78594 11.9727 9.20557 0 0 0 19.7363 9.38097 -71.833 28.0855
Si 7.58101 13.0342 6.1942 0 0 0 -6.3432 -74.8556 29.4864 28.0855
Si 9.20356 9.93726 12.7908 0 0 0 25.7436 -12.1038 47.3887 28.0855
Si 6.0201 13.0266 14.4983 0 0 0 14.9832 -24.851 21.6248 28.0855
C -3.15899 14.0122 1.73145 0 0 0 4.30007 -6.84666 -7.6763 12.0107
C 1.53128 2.28975 16.2539 0 0 0 3.87967 1.02258 4.02528 12.0107
C 14.299 3.08779 2.23588 0 0 0 -6.22335 9.76305 0.576144 12.0107
C 0.57217 5.95555 17.1859 0 0 0 -9.22643 5.02437 4.50589 12.0107
C -0.21301 6.78696 6.57925 0 0 0 6.89412 2.49415 3.22039 12.0107
C 2.997 5.56443 14.9556 0 0 0 3.46457 0.298164 8.67918 12.0107
C -2.99348 8.76581 8.24355 0 0 0 5.35181 -7.04837 6.39855 12.0107
C -0.29349 10.0887 7.99668 0 0 0 6.35944 -2.27078 7.72284 12.0107
C -3.12438 13.9935 7.2113 0 0 0 -3.43565 8.32674 -0.395591 12.0107
C -0.83489 9.37877 16.1193 0 0 0 -1.33161 -12.4174 7.96336 12.0107
C -1.74895 12.6884 16.9799 0 0 0 9.52745 -6.74908 -9.62402 12.0107
C -1.62357 14.3005 13.0586 0 0 0 4.45436 -7.69543 -5.33223 12.0107
C 8.02108 0.9547 4.08455 0 0 0 5.00543 3.4493 -3.26089 12.0107
C -0.18833 13.6656 8.14104 0 0 0 -0.207605 -3.6272 -1.08835 12.0107
C 8.52076 3.52271 5.75636 0 0 0 -20.8892 26.2607 -3.5137 12.0107
C 6.80767 4.28222 14.7885 0 0 0 5.15057 2.06501 -10.8628 12.0107
C 1.83384 6.62914 2.71653 0 0 0 -7.96966 -2.97327 -5.07021 12.0107
C 4.73119 5.50941 2.25132 0 0 0 6.9174 -7.25808 5.80591 12.0107
C 5.57894 6.82458 16.7085 0 0 0 -13.6206 -15.3846 4.04366 12.0107
C 3.25763 8.75019 16.8328 0 0 0 -3.86222 -12.0843 4.43407 12.0107
C 5.07399 6.8079 12.3674 0 0 0 1.84758 -6.04845 0.268339 12.0107
C 2.45432 13.8051 1.77404 0 0 0 13.5375 4.31 11.6736 12.0107
C 0.95087 12.6924 11.2801 0 0 0 -7.74066 -4.25485 1.52747 12.0107
C 7.66136 14.0709 2.09434 0 0 0 8.20592 -9.54686 6.30781 12.0107
C 13.4702 2.17865 5.39412 0 0 0 0.852694 -6.12125 -4.12187 12.0107
C 11.67 4.10794 14.5094 0 0 0 4.83426 9.65973 -5.58328 12.0107
C 12.0416 0.93397 10.1622 0 0 0 5.39775 7.87855 -2.4592 12.0107
C 13.4027 4.0352 9.82535 0 0 0 3.08632 18.8696 -10.8256 12.0107
C 9.98405 3.79329 2.90031 0 0 0 -10.1022 -0.965307 1.61932 12.0107
C 10.9441 1.92005 7.57647 0 0 0 3.57534 -8.76512 -5.14188 12.0107
C 10.503 5.16157 8.21306 0 0 0 -0.789963 11.1867 14.0259 12.0107
C 10.1088 9.29441 5.53418 0 0 0 -2.82671 11.6105 4.03 12.0107
C 8.5494 8.45722 16.0153 0 0 0 0.77908 1.44542 2.19669 12.0107
C 11.4883 6.51928 11.3792 0 0 0 5.30366 -5.59187 8.46486 12.0107
C 9.21032 6.46482 13.3339 0 0 0 -1.72779 -1.27085 8.1701 12.0107
C 10.3484 9.11288 1.51627 0 0 0 5.96337 0.322855 2.00493 12.0107
C 9.79077 11.8744 3.07643 0 0 0 31.6006 -27.5965 7.73927 12.0107
C 5.99778 10.6607 4.20909 0 0 0 1.09123 -12.3101 -2.21626 12.0107
C 6.54737 11.746 9.70696 0 0 0 5.98913 -2.4339 -1.00064 12.0107
C 9.10315 11.5258 11.84 0 0 0 3.89922 -0.842516 -9.70047 12.0107
C 11.7455 11.6826 14.8404 0 0 0 5.51906 -7.99646 -8.35804 12.0107
C 7.78177 12.6117 14.7651 0 0 0 1.66703 -7.72006 4.56231 12.0107
O 2.79263 2.58294 2.20429 0 0 0 21.9661 39.3415 13.4891 15.9994
O 2.69153 1.93789 11.4046 0 0 0 0.303651 -56.7145 16.438 15.9994
O 3.77635 2.46576 13.7907 0 0 0 -22.848 31.9889 65.9544 15.9994
O 0.97646 4.10921 0.87113 0 0 0 1.01361 77.6358 -2.29123 15.9994
O 2.36677 3.49808 9.3097 0 0 0 71.3035 -2.53313 -4.84196 15.9994
O 2.23011 4.78858 7.02159 0 0 0 32.0991 75.7653 -29.1734 15.9994
O -1.59955 7.02649 3.99704 0 0 0 54.9593 -87.1792 7.46764 15.9994
O 0.56379 4.07807 14.2403 0 0 0 -63.9419 27.0859 -10.3889 15.9994
O 2.4682 4.37707 12.4397 0 0 0 -19.0396 46.0718 -51.3687 15.9994
O 0.92152 6.4425 13.1956 0 0 0 -76.5727 -13.4767 1.14227 15.9994
O 1.86077 0.57304 3.72935 0 0 0 -36.768 27.5057 -10.0373 15.9994
O -1.58907 9.08741 5.648 0 0 0 -32.8449 29.3661 -32.5371 15.9994
O -3.96147 12.5817 4.97439 0 0 0 18.0413 -65.9429 -30.127 15.9994
O -2.69892 11.1935 6.83566 0 0 0 -66.846 -1.26328 59.9586 15.9994
O 0.99692 9.05172 14.0304 0 0 0 59.3044 5.0576 43.8991 15.9994
O -3.37446 14.4052 15.3462 0 0 0 -64.3917 20.9667 10.6328 15.9994
O -3.13605 10.9416 11.5643 0 0 0 -52.0185 -0.179048 39.0159 15.9994
O -1.37426 10.1084 13.3994 0 0 0 -72.0044 14.9178 45.4221 15.9994
O 4.33482 1.46106 4.07521 0 0 0 28.9517 -78.2119 16.3802 15.9994
O 3.85931 3.84573 5.16162 0 0 0 12.8078 72.1149 -9.36256 15.9994
O 7.02759 1.17383 1.37226 0 0 0 -23.239 -45.4007 9.5971 15.9994
O 4.82733 3.55226 11.6056 0 0 0 54.216 24.1711 60.0826 15.9994
O 5.85557 2.2996 6.05407 0 0 0 2.33738 -42.6791 23.3679 15.9994
O 5.74965 1.76132 15.4726 0 0 0 62.9031 -61.8605 20.1778 15.9994
O 7.28755 3.01181 17.3102 0 0 0 -37.1427 -43.1837 52.5396 15.9994
O 4.86186 3.78047 16.9414 0 0 0 -19.3302 66.6526 -58.4225 15.9994
O 7.24768 3.39891 10.6675 0 0 0 16.0841 9.57861 -45.0649 15.9994
O 8.59854 2.05233 12.5957 0 0 0 -78.7716 5.10138 20.0974 15.9994
O 6.04266 3.46595 3.69501 0 0 0 71.7857 -31.749 -2.84026 15.9994
O 6.84239 3.8288 1.20304 0 0 0 43.3717 54.1496 -39.7301 15.9994
O 0.79658 8.3669 4.56235 0 0 0 -3.04107 85.995 10.1278 15.9994
O 5.42367 5.11673 9.51812 0 0 0 -47.8522 45.9135 27.6959 15.9994
O 6.61524 4.50161 7.31463 0 0 0 49.3106 20.8936 -38.6802 15.9994
O 2.50371 6.18206 9.25817 0 0 0 65.3087 -33.4641 59.5221 15.9994
O 3.45179 7.45064 4.95722 0 0 0 -53.1761 -75.7494 14.1977 15.9994
O 4.84366 6.39488 7.06649 0 0 0 -94.1244 -35.9867 18.8981 15.9994
O 4.08913 8.13655 10.0924 0 0 0 48.4298 25.2924 -42.8523 15.9994
O 2.83972 9.29182 3.08979 0 0 0 -30.1032 62.4058 35.4272 15.9994
O 3.65718 8.33269 0.72873 0 0 0 43.4387 -61.5788 24.1244 15.9994
O -0.21775 12.9678 2.67862 0 0 0 -19.7035 -1.61492 -46.4664 15.9994
O -1.31636 12.7285 5.16026 0 0 0 39.3444 88.4956 29.7697 15.9994
O 2.9423 10.9042 0.90389 0 0 0 3.89537 72.7299 44.3153 15.9994
O 2.69399 8.51412 7.8979 0 0 0 -45.2939 -27.3586 -35.1017 15.9994
O 4.9207 8.97462 6.52394 0 0 0 48.1427 25.4574 -3.25417 15.9994
O 1.14454 11.8064 4.64225 0 0 0 7.69598 -64.9015 -45.258 15.9994
O 2.77613 10.5581 6.26827 0 0 0 -57.5681 -43.2823 -27.9092 15.9994
O 2.20276 13.1662 6.66191 0 0 0 19.5837 70.6579 -4.08427 15.9994
O 4.98278 9.71456 12.058 0 0 0 51.9216 45.2611 -24.4112 15.9994
O 0.36025 11.6123 14.6671 0 0 0 -38.3329 42.8505 -49.4128 15.9994
O 1.25608 14.1686 14.3184 0 0 0 -63.0435 20.2374 -3.18126 15.9994
O 2.89042 11.2988 12.6427 0 0 0 -46.8039 -21.7802 16.5744 15.9994
O 3.19084 13.9873 12.5202 0 0 0 71.8784 3.80145 -6.48922 15.9994
O 14.3814 3.06013 15.8823 0 0 0 -30.0214 45.5929 -42.8118 15.9994
O 12.1638 0.56748 0.56385 0 0 0 -16.9819 -17.9465 1.16576 15.9994
O 2.39373 14.3133 9.10371 0 0 0 -22.344 -5.14239 71.1935 15.9994
O 9.7281 2.54362 10.1701 0 0 0 50.8784 54.2283 -47.51 15.9994
O 15.439 1.48021 14.0088 0 0 0 56.8345 -58.2669 3.46386 15.9994
O 10.3325 1.60302 14.6434 0 0 0 72.8202 -57.7286 25.6979 15.9994
O 12.0719 2.30648 16.718 0 0 0 -31.6193 -67.541 26.1605 15.9994
O 9.74022 3.3998 16.5334 0 0 0 -10.3179 71.6948 -52.3149 15.9994
O 15.7219 2.55048 10.5567 0 0 0 -52.7157 -52.6985 -16.0553 15.9994
O 13.7252 2.54073 12.2932 0 0 0 -51.2885 25.1064 3.8405 15.9994
O 11.5542 3.17694 0.71966 0 0 0 66.3775 14.0828 15.1468 15.9994
O 12.3454 5.30469 2.41383 0 0 0 58.209 -52.3609 21.4186 15.9994
O 7.40896 5.64472 3.13387 0 0 0 66.6787 -22.4709 -45.1009 15.9994
O 6.19269 7.24946 4.90837 0 0 0 -15.8746 -20.8135 -11.201 15.9994
O 10.4394 5.59993 0.63865 0 0 0 44.5428 44.3434 -8.07168 15.9994
O 13.0152 4.73324 6.8083 0 0 0 21.1422 10.3449 58.8962 15.9994
O 7.07598 6.88034 8.38767 0 0 0 39.4294 29.8304 -75.8678 15.9994
O 6.66503 8.42673 10.5451 0 0 0 27.3891 69.9662 25.149 15.9994
O 11.2313 7.34519 3.65787 0 0 0 -53.4126 44.379 -54.6799 15.9994
O 8.90694 6.79208 4.98048 0 0 0 -0.832831 -50.1371 62.167 15.9994
O 11.3177 6.7699 6.18093 0 0 0 49.3591 32.5913 40.3843 15.9994
O 5.91063 9.41613 15.5429 0 0 0 -17.2976 20.4946 -7.35467 15.9994
O 8.73747 6.72289 10.4556 0 0 0 9.53514 -64.9286 2.86621 15.9994
O 7.89662 8.27624 3.09381 0 0 0 -21.0376 67.9162 35.1321 15.9994
O 8.3577 7.352 0.6821 0 0 0 -84.4897 -11.453 -6.8289 15.9994
O 5.21119 13.0573 2.72273 0 0 0 -67.6627 20.775 -19.8504 15.9994
O 3.75636 12.4661 4.71258 0 0 0 -22.783 45.598 -49.3739 15.9994
O 10.9415 12.9251 17.2614 0 0 0 23.8809 44.5724 38.1958 15.9994
O 7.6861 9.99475 1.19713 0 0 0 -47.2452 12.6436 44.229 15.9994
O 6.29784 12.1894 0.46009 0 0 0 -76.3759 -10.7103 -33.4801 15.9994
O 4.25609 10.5831 8.51264 0 0 0 2.1895 -36.1262 84.3637 15.9994
O 3.84722 12.3541 10.4925 0 0 0 12.8165 17.3707 -2.6067 15.9994
O 9.00834 13.3655 5.46497 0 0 0 26.8827 48.5388 40.6447 15.9994
O 6.28898 13.2522 5.19759 0 0 0 -28.5064 77.6597 -11.2152 15.9994
O 7.73548 9.60598 13.4921 0 0 0 -49.8172 42.0833 -39.6894 15.9994
O 9.69027 8.7758 11.7345 0 0 0 36.0228 22.3217 -48.6846 15.9994
O 5.28901 11.8848 13.5779 0 0 0 44.2005 6.6299 -63.8932 15.9994
O 6.02088 14.5007 13.7309 0 0 0 -51.4416 18.0631 10.3333 15.9994
O 5.26162 13.1535 15.9546 0 0 0 17.6142 74.5696 36.9509 15.9994
H 1.71205 1.00828 9.26686 0 0 0 -0.657789 2.15947 -0.55766 1.00794
H 1.37795 4.10036 4.73516 0 0 0 4.42914 -7.01732 5.41702 1.00794
H 2.10763 2.3344 6.28126 0 0 0 0.393239 5.39295 -1.39615 1.00794
H 1.0876 1.52629 0.75335 0 0 0 43.3717 38.9777 -16.9046 1.00794
H -2.59161 7.69263 1.79872 0 0 0 0.970754 -2.11256 3.16936 1.00794
H 0.35764 4.95404 8.77237 0 0 0 4.6954 0.326824 -3.27155 1.00794
H 0.15049 8.31716 11.7513 0 0 0 24.2251 -16.7136 5.76904 1.00794
H -4.3207 11.5932 9.36241 0 0 0 5.30096 1.72315 3.04836 1.00794
H -2.09494 12.4757 9.8238 0 0 0 -9.43612 -4.54965 11.249 1.00794
H -4.00748 13.3067 11.0591 0 0 0 -0.410198 -6.07783 -6.80482 1.00794
H -0.78897 10.2567 10.9063 0 0 0 -6.44501 -5.69212 10.4168 1.00794
H -2.35005 8.52852 11.6844 0 0 0 8.77959 11.3617 -1.35745 1.00794
H 1.84631 11.8748 8.76178 0 0 0 -4.81078 4.66542 -4.56123 1.00794
H 5.29312 2.56973 9.29423 0 0 0 -2.14225 0.373028 4.09412 1.00794
H 7.47355 2.18961 7.98323 0 0 0 7.1162 9.24921 -2.99517 1.00794
H 9.27463 4.34104 11.8127 0 0 0 -3.2987 -26.0414 -27.5195 1.00794
H -0.51692 5.73004 2.12944 0 0 0 -23.6628 -34.3473 -8.25558 1.00794
H 1.52818 8.33749 10.103 0 0 0 10.4499 2.75339 -15.1667 1.00794
H 2.56408 8.16136 12.3038 0 0 0 -13.1035 -2.65927 4.55721 1.00794
H -0.92279 10.7417 3.58665 0 0 0 0.0764018 0.789564 1.82256 1.00794
H 3.15129 13.0844 17.3612 0 0 0 5.73688 -3.96765 2.11838 1.00794
H 3.87876 9.81579 14.3333 0 0 0 7.02553 4.54133 -11.1751 1.00794
H 2.75061 12.304 15.0972 0 0 0 -50.7719 8.80734 -47.3086 1.00794
H 3.92937 11.0356 16.2506 0 0 0 2.73571 23.5159 3.00571 1.00794
H 0.99088 13.1096 16.6152 0 0 0 9.91809 -2.10177 -3.07536 1.00794
H -0.95712 4.60612 4.76581 0 0 0 -3.52662 -5.15117 3.06147 1.00794
H -0.27098 3.58002 6.86065 0 0 0 -14.1781 -2.05752 -6.92541 1.00794
H 7.82714 14.3162 11.9393 0 0 0 -3.63242 3.21934 -0.641052 1.00794
H -0.42903 4.6647 11.8896 0 0 0 -7.06401 -4.44204 -8.37508 1.00794
H 10.3732 6.08993 16.796 0 0 0 6.49472 0.357886 -0.366669 1.00794
H 10.9603 4.36591 5.49094 0 0 0 9.74204 3.70471 5.96963 1.00794
H 8.57928 8.8029 8.93009 0 0 0 2.31328 -1.88548 4.39019 1.00794
H 6.68534 7.45253 14.2241 0 0 0 -39.1832 37.4738 38.2313 1.00794
H 11.9177 7.8577 16.0926 0 0 0 -5.76422 -2.98534 4.59371 1.00794
H 5.01951 10.0075 1.97818 0 0 0 -4.71351 -3.20398 -14.8253 1.00794
H 4.63818 13.0157 8.15503 0 0 0 7.32952 -9.05399 3.42012 1.00794
H 7.44415 13.9727 7.33756 0 0 0 1.29199 -6.67235 -1.54595 1.00794
H 7.61641 11.6236 6.66876 0 0 0 1.45484 9.2003 -0.552795 1.00794
H 10.1899 9.91543 13.8904 0 0 0 -9.09086 -3.05996 -16.521 1.00794
H 9.2639 11.2752 16.3053 0 0 0 38.9805 -8.73147 33.5729 1.00794
H -3.92379 13.9111 0.95222 0 0 0 -7.00412 10.5737 3.19669 1.00794
H -3.01598 13.0337 2.20651 0 0 0 1.61959 -3.71241 7.72571 1.00794
H 4.71864 0.19236 1.25676 0 0 0 2.53543 2.08736 1.01878 1.00794
H 2.5223 2.54763 15.8752 0 0 0 -1.59923 8.24109 -3.1934 1.00794
H 17.0682 1.23086 16.5292 0 0 0 -9.55625 -6.63706 -2.23913 1.00794
H 1.34126 2.88073 17.1565 0 0 0 -2.74275 0.621329 -8.20558 1.00794
H -0.38714 2.68233 2.81639 0 0 0 5.79054 5.99214 5.04974 1.00794
H 13.9114 2.2948 1.59331 0 0 0 -6.78608 15.1107 -6.6803 1.00794
H 13.5118 3.37327 2.93457 0 0 0 -0.530312 -0.986488 3.43593 1.00794
H -2.42699 5.61278 0.01217 0 0 0 0.957128 4.54526 -3.05005 1.00794
H 0.27553 5.14566 16.5124 0 0 0 2.61197 -4.08357 7.36545 1.00794
H 1.18632 6.66812 16.6208 0 0 0 -4.29562 1.99136 -1.70714 1.00794
H 0.33462 5.89456 6.26303 0 0 0 -0.745619 11.6391 -10.5395 1.00794
H -1.06558 6.48341 7.19219 0 0 0 -2.61958 11.629 5.00187 1.00794
H 0.48673 7.38531 7.1784 0 0 0 -0.324123 -2.66591 3.33206 1.00794
H 3.07653 6.6559 15.0339 0 0 0 -2.7572 4.56285 -4.40739 1.00794
H 3.96925 5.17465 14.6383 0 0 0 -1.71968 -5.97707 -5.86396 1.00794
H 2.8088 5.17584 15.9587 0 0 0 -6.44683 -7.56345 -5.72826 1.00794
H -2.53238 7.79024 8.45342 0 0 0 4.59944 -3.58872 -0.709487 1.00794
H 11.5311 8.58702 7.84221 0 0 0 -4.30026 4.59568 -4.14881 1.00794
H -3.10549 9.29542 9.20181 0 0 0 -1.53 0.669961 0.548396 1.00794
H 0.47448 10.4883 7.3249 0 0 0 -4.29712 2.05326 -8.07182 1.00794
H 0.09934 9.1538 8.41537 0 0 0 -4.54423 -2.89628 2.12595 1.00794
H -0.42809 10.7781 8.83871 0 0 0 -3.78109 -0.878618 -0.760849 1.00794
H 4.21079 0.85582 6.88961 0 0 0 -3.2132 -1.40885 -3.23357 1.00794
H -2.76502 13.8101 8.22843 0 0 0 -4.6562 1.65512 -1.90461 1.00794
H -4.22129 14.0696 7.24209 0 0 0 -5.32629 1.95475 3.36299 1.00794
H -0.14168 9.55962 16.9537 0 0 0 7.33559 3.35679 1.48669 1.00794
H -0.93797 8.29079 16.0025 0 0 0 -1.91833 -5.36393 -2.08099 1.00794
H -1.81603 9.78005 16.3921 0 0 0 -8.54821 -1.47139 -5.55162 1.00794
H -1.24329 11.8001 16.5936 0 0 0 -3.22691 11.9725 3.34384 1.00794
H -3.94045 11.6845 0.59796 0 0 0 -2.6726 0.617346 2.77921 1.00794
H -1.08396 13.5423 16.812 0 0 0 -4.82726 5.05773 -7.17467 1.00794
H -2.42103 14.0928 12.3312 0 0 0 1.4707 2.36229 1.87816 1.00794
H -1.20834 13.3468 13.4044 0 0 0 -4.42576 -3.33448 8.831 1.00794
H 6.1127 0.7521 12.5562 0 0 0 2.9226 7.37198 -2.37974 1.00794
H 8.02092 2.03597 3.94639 0 0 0 -8.82699 -14.0977 -26.3352 1.00794
H 9.00269 0.66184 4.48156 0 0 0 5.09304 -1.9258 -0.132786 1.00794
H 7.25929 0.70695 4.83081 0 0 0 -4.32486 -7.93507 -1.60981 1.00794
H -0.49777 14.2553 9.01225 0 0 0 2.21188 4.82726 6.80286 1.00794
H -0.79519 12.7544 8.11517 0 0 0 9.11862 0.193429 -1.81995 1.00794
H -0.41196 14.2418 7.23739 0 0 0 6.46035 1.06301 -5.12951 1.00794
H 8.11644 4.02512 4.87383 0 0 0 -7.45605 0.794262 9.51379 1.00794
H 9.22034 2.75374 5.43781 0 0 0 -8.92977 -0.339795 -18.0368 1.00794
H 9.04757 4.28577 6.33381 0 0 0 -30.1814 -9.09649 -8.47156 1.00794
H 7.57131 3.70573 14.2476 0 0 0 4.25416 -0.128334 -0.524484 1.00794
H 7.27274 5.19955 15.163 0 0 0 4.14479 2.27869 7.80612 1.00794
H 6.02956 4.5489 14.0614 0 0 0 -5.24755 -2.67264 -0.657245 1.00794
H 1.58787 5.69077 3.22916 0 0 0 2.40832 -0.560278 6.23289 1.00794
H 2.60478 6.42869 1.97745 0 0 0 -22.906 17.5271 -2.74454 1.00794
H 0.93235 6.96667 2.19345 0 0 0 22.8361 25.8125 -4.28055 1.00794
H 4.35406 5.83378 3.22865 0 0 0 4.89352 -1.5863 5.18071 1.00794
H 3.97904 4.84631 1.81318 0 0 0 6.34082 -13.6358 -1.58341 1.00794
H 4.85775 6.39403 1.61867 0 0 0 14.0531 2.6382 -0.613258 1.00794
H 5.35865 6.41462 15.7193 0 0 0 1.65321 6.04127 -1.103 1.00794
H 4.96538 6.26832 17.4241 0 0 0 -1.53197 4.81166 -0.311311 1.00794
H 6.6339 6.63206 16.9331 0 0 0 3.87517 1.43357 1.99148 1.00794
H 2.88967 7.79367 17.2294 0 0 0 1.39474 1.59074 3.35311 1.00794
H 2.78627 8.91899 15.8566 0 0 0 -0.219924 -4.52329 -0.813875 1.00794
H 0.83044 8.66041 0.05166 0 0 0 -0.349075 2.9821 7.49921 1.00794
H 6.03377 6.28393 12.4531 0 0 0 6.82081 -1.67402 -6.9314 1.00794
H 4.34915 6.1124 11.9293 0 0 0 -4.9603 -1.04966 -2.80162 1.00794
H 4.73896 7.07505 13.3749 0 0 0 -7.74769 7.02189 1.48963 1.00794
H 2.49749 13.7517 0.68432 0 0 0 -7.18619 9.32651 4.16914 1.00794
H 2.82274 12.8744 2.20888 0 0 0 -6.61683 -4.48104 7.66825 1.00794
H 10.0819 0.4923 2.09133 0 0 0 0.631094 4.93269 2.54328 1.00794
H 0.41867 12.499 12.2197 0 0 0 -1.82054 -2.27256 -1.08529 1.00794
H 0.65789 11.9087 10.5727 0 0 0 0.744565 -5.42596 3.91824 1.00794
H 0.62465 13.6644 10.8989 0 0 0 2.74016 9.87645 3.99701 1.00794
H 15.3306 0.36862 1.39511 0 0 0 -38.7971 -34.7913 8.01529 1.00794
H 8.07805 13.1586 2.52677 0 0 0 -56.628 43.1793 -13.8102 1.00794
H 14.4456 0.6677 2.91774 0 0 0 -3.72384 -13.1123 6.42665 1.00794
H 13.2466 1.53169 6.24604 0 0 0 3.73554 4.57341 5.86393 1.00794
H 14.2705 1.69766 4.81375 0 0 0 3.27544 0.378356 2.80506 1.00794
H 12.5755 2.22612 4.76026 0 0 0 -6.82181 7.72836 -2.45464 1.00794
H 10.9549 4.40467 13.7347 0 0 0 24.1462 -20.5299 2.36093 1.00794
H 12.5634 3.72273 14.0046 0 0 0 2.2053 -0.884056 2.02022 1.00794
H 11.9567 5.00368 15.077 0 0 0 1.0158 2.71167 6.30141 1.00794
H 12.4766 1.893 10.4522 0 0 0 -16.0824 -24.6484 -3.03027 1.00794
H 5.82605 14.5494 9.49186 0 0 0 3.85778 6.1853 -4.6883 1.00794
H 4.98496 14.4532 11.0759 0 0 0 -0.0238944 0.282087 1.33878 1.00794
H 12.3467 4.02311 10.1152 0 0 0 2.25319 -8.43377 -1.08073 1.00794
H 13.525 3.39086 8.94762 0 0 0 4.6898 -7.66888 -1.15425 1.00794
H 13.6546 5.05885 9.51866 0 0 0 2.65086 6.99788 0.546595 1.00794
H 10.5079 3.00894 3.46409 0 0 0 5.10618 -4.46128 1.21189 1.00794
H 9.10956 3.34107 2.41683 0 0 0 -1.19389 -1.57673 -6.34875 1.00794
H 9.64331 4.55768 3.60085 0 0 0 11.7151 13.9205 -8.64294 1.00794
H 11.202 1.02053 6.9982 0 0 0 -0.824272 -4.06049 -3.14999 1.00794
H 11.819 2.57771 7.5983 0 0 0 1.08253 -3.66945 10.2887 1.00794
H 10.1332 2.42744 7.05349 0 0 0 27.1 -18.9973 50.4906 1.00794
H 11.0009 5.87685 8.8803 0 0 0 0.249881 -1.31503 -3.16172 1.00794
H 10.4118 4.2088 8.73602 0 0 0 6.29705 3.48486 -9.29161 1.00794
H 9.49323 5.55786 8.03751 0 0 0 -4.34638 2.10556 0.422488 1.00794
H 11.0155 9.90999 5.51202 0 0 0 7.23101 -2.88715 -4.76141 1.00794
H 9.6927 9.33355 6.55218 0 0 0 -2.55322 -0.671264 4.78059 1.00794
H 9.36379 9.74055 4.86382 0 0 0 -3.69588 -0.0206167 -4.12801 1.00794
H 9.5237 8.80253 15.6471 0 0 0 -0.202796 3.59645 -4.20431 1.00794
H 8.6353 7.39333 16.2712 0 0 0 -8.53049 -4.20646 -4.80057 1.00794
H 8.32849 8.99944 16.9417 0 0 0 -6.62514 6.19103 3.75875 1.00794
H 11.9711 6.9664 10.5019 0 0 0 -2.62132 7.23295 -4.16675 1.00794
H 11.4575 5.43004 11.2504 0 0 0 -9.1135 5.28507 8.96801 1.00794
H 12.1141 6.72572 12.2599 0 0 0 -0.226515 -1.88606 6.75218 1.00794
H 9.35018 5.38664 13.4336 0 0 0 -25.5689 25.8391 13.6169 1.00794
H 8.14698 6.66192 13.5035 0 0 0 61.5636 -45.7719 -44.8351 1.00794
H 9.79225 6.9452 14.1339 0 0 0 5.82679 0.578745 0.259851 1.00794
H 10.4421 9.95638 0.82316 0 0 0 -6.27084 -9.42118 -0.0211284 1.00794
H 10.9149 8.26988 1.10756 0 0 0 -2.67483 -1.72866 -5.46592 1.00794
H 10.826 9.39351 2.45511 0 0 0 0.322776 -28.125 -4.18243 1.00794
H -4.94557 11.1262 3.18489 0 0 0 0.196846 29.3765 12.5037 1.00794
H -5.71592 12.238 2.04437 0 0 0 17.9006 3.2775 -4.06975 1.00794
H 8.83051 11.3698 3.23939 0 0 0 -1.12544 -5.34463 11.7737 1.00794
H 6.49986 10.4569 5.16302 0 0 0 1.7037 -2.72573 1.88364 1.00794
H 6.72111 10.5278 3.39634 0 0 0 2.68941 7.02248 1.11223 1.00794
H 5.22376 9.90127 4.08202 0 0 0 -6.80848 0.279339 7.84207 1.00794
H 7.1338 11.3608 8.86075 0 0 0 0.870341 -2.61619 -2.49166 1.00794
H 6.60845 11.0136 10.5198 0 0 0 -3.0691 -3.02908 2.76787 1.00794
H 7.00082 12.6867 10.0435 0 0 0 -0.860765 7.05752 0.250961 1.00794
H 8.10089 11.9595 11.8989 0 0 0 -5.76171 -2.97532 1.9175 1.00794
H 9.32286 11.3334 10.7814 0 0 0 -2.84613 -3.87423 -5.1295 1.00794
H 9.81923 12.2704 12.2125 0 0 0 3.13656 0.347736 5.83863 1.00794
H 11.6994 10.6586 15.2348 0 0 0 5.69669 -1.74995 13.6284 1.00794
H -3.05842 11.6885 14.0185 0 0 0 3.0852 10.4746 1.13616 1.00794
H 10.762 11.9244 14.4192 0 0 0 -2.34333 10.1124 0.6351 1.00794
H 8.37703 12.7222 13.8543 0 0 0 -2.47758 7.4855 12.807 1.00794
H 7.86939 11.5826 15.1144 0 0 0 -40.1341 2.70783 -27.5002 1.00794
H 8.19198 13.2874 15.5223 0 0 0 -3.47001 11.7649 -6.99779 1.00794
365
Timestep=70 Time=70.000000 pbc="T T T" Lattice="15.5264 0 0 -6.93461 14.1043 0 2.088 0.879508 17.4642" Potential_energy=266.045508875959 Temperature=0 Stress="18275.2229245526 671.3070954536199 2533.170670909983 671.3070954536199 18005.06272299353 4701.788278492072 2533.170670909983 4701.788278492072 15008.026082314474" Properties=species:S:1:pos:R:3:vel:R:3:forces:R:3:mass:R:1
Si 3.11197 1.29564 3.05155 0 0 0 0.548835 1.61827 -0.520641 28.0855
Si 1.77335 2.86296 0.882841 0 0 0 0.549289 0.526846 0.326477 28.0855
Si 2.09346 2.23148 10.0031 0 0 0 1.37126 -0.113175 -1.36348 28.0855
Si 2.39424 4.14729 5.71699 0 0 0 -0.635742 0.49678 0.204657 28.0855
Si 4.45584 1.26758 14.7198 0 0 0 -0.0493816 0.240529 -0.00290985 28.0855
Si 15.4595 2.72273 14.9702 0 0 0 -0.125056 -0.148762 -0.158211 28.0855
Si 3.54888 3.25645 12.4352 0 0 0 0.156763 -1.28802 1.07829 28.0855
Si -0.527036 4.5567 1.51999 0 0 0 -0.125036 0.726132 0.534057 28.0855
Si 12.5235 6.82003 3.17996 0 0 0 0.371046 0.322489 -0.648148 28.0855
Si 1.93702 4.87782 8.52497 0 0 0 1.3702 1.06002 1.30712 28.0855
Si -0.766044 7.99561 5.18096 0 0 0 -0.938326 -0.249614 -0.716634 28.0855
Si 1.51056 5.10659 13.7297 0 0 0 -0.380349 0.327757 -0.356822 28.0855
Si 1.30354 7.95453 12.7757 0 0 0 0.155861 -1.42648 -0.862512 28.0855
Si -5.12659 13.1651 4.46212 0 0 0 -0.102323 -0.092919 0.460799 28.0855
Si -1.99866 9.99034 7.10604 0 0 0 -0.109288 -0.369774 -0.00961264 28.0855
Si -3.07752 12.2472 10.5444 0 0 0 0.412041 0.267446 -0.301752 28.0855
Si -2.48723 12.762 5.92469 0 0 0 0.543076 -0.607547 -0.103545 28.0855
Si -0.192418 9.94963 14.4412 0 0 0 -0.40569 0.510482 1.06716 28.0855
Si -3.46332 13.0027 16.4396 0 0 0 -0.640772 -0.220189 -0.396964 28.0855
Si -1.86271 9.97103 11.9795 0 0 0 1.3471 1.58032 -0.0740377 28.0855
Si 0.474092 14.055 1.99074 0 0 0 0.384232 -1.81558 0.70472 28.0855
Si 4.86847 3.12351 4.68982 0 0 0 -0.149262 0.0757463 1.25218 28.0855
Si 6.48535 2.37964 0.203503 0 0 0 1.15735 -0.0304559 -0.308624 28.0855
Si 1.61132 13.5464 8.24109 0 0 0 -0.210032 -0.48919 0.480881 28.0855
Si 5.84755 3.63875 10.294 0 0 0 0.246645 -1.41067 1.35163 28.0855
Si 7.07683 3.39437 6.79153 0 0 0 -0.309097 0.476574 -0.342651 28.0855
Si 9.30281 0.906648 13.7125 0 0 0 -0.077843 -1.34889 0.144256 28.0855
Si 5.95503 3.2674 16.2236 0 0 0 -0.678744 -0.0780623 0.00874677 28.0855
Si 8.65724 3.04386 11.4523 0 0 0 -0.441946 1.039 0.539893 28.0855
Si 6.51637 4.50335 2.47902 0 0 0 0.040824 -0.782466 0.719573 28.0855
Si 2.20216 8.14346 3.92339 0 0 0 0.573286 1.13285 0.399216 28.0855
Si 5.18236 8.40702 16.7724 0 0 0 -0.201168 0.733407 -0.687382 28.0855
Si 6.3786 5.9452 8.02336 0 0 0 -0.135537 -1.71989 2.30754 28.0855
Si 2.87182 7.64965 9.35093 0 0 0 -2.2843 -1.36943 0.829732 28.0855
Si 4.85384 7.51103 5.76717 0 0 0 -3.81194 0.474645 3.54071 28.0855
Si 5.27556 8.18946 11.0741 0 0 0 -0.449088 1.7136 0.168286 28.0855
Si 3.73223 9.40359 1.50162 0 0 0 -0.35476 0.29794 -0.0248054 28.0855
Si 0.0732045 12.117 4.213 0 0 0 -0.0430485 1.99945 -0.146663 28.0855
Si 4.40465 11.8712 16.6942 0 0 0 -0.393033 0.486781 0.692735 28.0855
Si 3.59696 9.66036 7.37862 0 0 0 -0.18404 -0.640824 0.977805 28.0855
Si 2.76967 12.2531 5.77374 0 0 0 0.929631 0.847272 -0.538703 28.0855
Si 4.40146 10.5099 12.89 0 0 0 -0.902734 -1.22687 0.520527 28.0855
Si 1.07319 12.6431 15.1096 0 0 0 0.102043 0.323201 -0.100713 28.0855
Si 2.79485 12.7035 11.7438 0 0 0 -0.377378 -0.204758 -0.60499 28.0855
Si 5.76237 13.309 1.32776 0 0 0 0.00586866 0.367218 -0.650416 28.0855
Si 13.4409 2.68344 17.2715 0 0 0 0.151875 0.2364 1.13202 28.0855
Si 10.4335 1.60082 9.48897 0 0 0 -0.395781 -1.5905 -0.346853 28.0855
Si 13.913 3.72567 5.96774 0 0 0 0.517409 0.683009 -0.00606871 28.0855
Si 14.3233 1.01371 12.8016 0 0 0 -0.175887 0.377672 0.921059 28.0855
Si 10.7382 2.71185 15.7185 0 0 0 -0.742371 0.0841327 0.470446 28.0855
Si 14.9626 3.28925 10.939 0 0 0 0.600977 0.0199649 -0.0479536 28.0855
Si 11.2346 4.3781 1.67985 0 0 0 0.780914 -0.332535 0.264653 28.0855
Si 7.66598 6.93259 4.08435 0 0 0 -5.98891 -0.0291419 0.955063 28.0855
Si 11.3715 6.78077 17.2954 0 0 0 0.0579921 -0.571103 -0.536615 28.0855
Si 11.547 5.40664 6.72163 0 0 0 -0.718652 -0.219837 -0.00328508 28.0855
Si 7.94836 7.93945 9.65702 0 0 0 0.22947 -0.628917 -0.0296584 28.0855
Si 10.3675 7.5883 5.23968 0 0 0 -2.41652 -0.158104 0.119599 28.0855
Si 7.31219 8.75252 14.7693 0 0 0 -0.545865 -0.171677 -0.126286 28.0855
Si 9.92945 7.19429 11.6841 0 0 0 -0.601116 -0.764495 0.408436 28.0855
Si 8.51567 8.33824 1.51875 0 0 0 -1.26749 0.884723 0.763464 28.0855
Si 5.51889 12.4136 4.2482 0 0 0 -0.451778 -0.354558 0.447143 28.0855
Si 7.42685 10.9278 0.145637 0 0 0 0.887874 -0.389154 1.4067 28.0855
Si 4.72617 11.7705 9.23691 0 0 0 -0.0563461 -0.0206383 2.08779 28.0855
Si 7.87869 12.8273 6.11365 0 0 0 0.700289 0.198623 0.120858 28.0855
Si 9.33403 9.94867 12.8452 0 0 0 0.140267 0.527766 0.248751 28.0855
Si 5.90953 12.8818 14.2127 0 0 0 0.0885076 0.690197 0.904535 28.0855
C -3.29501 14.125 1.83212 0 0 0 0.22672 0.860708 -0.891297 12.0107
C 1.19131 2.45341 16.2452 0 0 0 0.071417 -0.435436 -0.457281 12.0107
C -1.09061 3.06867 2.45186 0 0 0 0.205454 0.236611 0.128981 12.0107
C -1.54077 5.18258 0.0791306 0 0 0 -0.40889 -0.252368 0.0386279 12.0107
C -0.242073 7.02539 6.66259 0 0 0 -0.141071 0.597026 -0.142333 12.0107
C 2.62789 5.374 15.1425 0 0 0 0.666952 0.782754 -0.220995 12.0107
C -2.9548 8.92704 8.31027 0 0 0 1.01434 0.129636 -0.306743 12.0107
C -0.375529 10.378 7.90824 0 0 0 0.220394 -0.630633 0.270984 12.0107
C -3.00947 14.2347 6.96106 0 0 0 -1.22237 -0.0497777 -0.644384 12.0107
C -0.317155 9.17696 16.1155 0 0 0 -0.690126 0.219838 0.0347856 12.0107
C -1.78326 12.6781 17.1697 0 0 0 -0.297692 0.51499 -0.328782 12.0107