386
Timestep=0 Time=0.000000 pbc="T T T" Lattice="16.7222 0 0 -7.3464 13.589 0 -0.307144 -0.017989 17.3161" Potential_energy=1510.5954585706106 Temperature=0 Stress="108600.26737277787 1975.4431987656199 -930.7683270161159 1975.4431987656199 109463.82468858134 -9360.562790741857 -930.7683270161159 -9360.562790741857 101048.31252772304" Properties=species:S:1:pos:R:3:vel:R:3:forces:R:3:mass:R:1
Si -0.2402 1.09523 3.07462 0 0 0 37.5963 45.3004 7.88708 28.0855
Si 0.32466 2.8814 16.9381 0 0 0 3.3207 31.0126 -31.9971 28.0855
Si -0.82702 3.45206 7.9236 0 0 0 31.7707 -2.31855 -43.1516 28.0855
Si -5.67546 12.6003 4.52403 0 0 0 17.822 39.1548 33.8232 28.0855
Si -5.92084 13.359 14.5626 0 0 0 38.2143 3.31094 -21.8076 28.0855
Si 14.5511 2.02464 15.6537 0 0 0 2.92744 10.3245 19.1717 28.0855
Si 11.8986 7.73252 10.2744 0 0 0 -2.55342 53.5905 46.7074 28.0855
Si -0.87736 7.49765 5.86322 0 0 0 -7.56106 48.4774 -44.6441 28.0855
Si -0.84666 4.43117 13.9363 0 0 0 31.8441 -11.9613 -58.0946 28.0855
Si -4.02145 8.28867 16.1584 0 0 0 75.6788 -37.6434 31.3622 28.0855
Si -2.55818 8.35939 8.28293 0 0 0 0.525531 78.1661 -16.7078 28.0855
Si 9.64583 12.0905 10.2078 0 0 0 -16.9926 28.1819 5.93982 28.0855
Si -3.03246 9.64254 13.5019 0 0 0 66.2424 -7.77533 21.5299 28.0855
Si -6.49352 11.765 17.1356 0 0 0 33.642 -50.3315 -4.33408 28.0855
Si -4.71173 11.7583 12.3315 0 0 0 14.8769 70.8073 -5.04208 28.0855
Si 1.99612 13.1763 2.55546 0 0 0 9.90332 -9.22353 -6.48982 28.0855
Si 4.13503 0.59874 3.72278 0 0 0 -16.4155 51.3644 -28.1944 28.0855
Si 7.66936 3.51709 0.39689 0 0 0 -22.2074 -20.449 17.6995 28.0855
Si 3.67732 2.05134 8.53562 0 0 0 -3.97131 -24.1873 10.8555 28.0855
Si 6.57933 1.63935 5.29775 0 0 0 29.0766 -2.74453 -13.3563 28.0855
Si 0.96382 12.9905 12.8124 0 0 0 -6.84672 -64.5874 34.6843 28.0855
Si 7.77945 2.05853 11.1349 0 0 0 -88.9195 -81.6966 -27.3806 28.0855
Si 5.43647 4.88627 1.57107 0 0 0 18.5811 -7.42128 20.8908 28.0855
Si 1.88954 6.71553 4.92701 0 0 0 -9.19027 -16.9877 -57.9102 28.0855
Si 3.23688 6.3443 0.20906 0 0 0 23.1994 45.9943 11.2585 28.0855
Si 5.88145 3.94168 7.10119 0 0 0 35.0109 -33.7233 -28.5361 28.0855
Si 2.36677 6.58523 9.58936 0 0 0 16.8288 -14.2848 -18.6075 28.0855
Si 4.92188 6.86857 6.08205 0 0 0 -20.8585 -28.8256 -36.7594 28.0855
Si 6.34864 4.18235 13.0988 0 0 0 -37.7578 -18.2638 -12.5848 28.0855
Si 0.48243 6.71496 15.8471 0 0 0 35.5691 -8.60268 47.3592 28.0855
Si 5.09992 6.15919 10.9476 0 0 0 59.1605 20.6459 -55.2449 28.0855
Si 2.87079 8.10781 2.57945 0 0 0 51.0909 -58.9441 -1.6272 28.0855
Si 0.07516 11.0459 3.8887 0 0 0 27.8524 21.756 0.582796 28.0855
Si 2.98111 10.895 0.92565 0 0 0 -50.9815 -9.43812 -44.8729 28.0855
Si 3.75942 8.94887 7.91948 0 0 0 17.0946 4.45115 -4.79656 28.0855
Si -0.51849 10.1497 9.57729 0 0 0 -7.54931 28.9995 -12.0237 28.0855
Si 2.54262 10.997 5.8471 0 0 0 54.4722 75.2876 48.7334 28.0855
Si 2.19386 8.79631 14.2247 0 0 0 46.1928 -61.1431 -26.4098 28.0855
Si -0.98484 11.7541 14.6782 0 0 0 58.3215 -32.7108 9.3695 28.0855
Si 1.65923 10.2395 11.6066 0 0 0 25.0019 39.8341 17.4679 28.0855
Si 6.24995 13.5556 2.2014 0 0 0 82.9482 -16.8973 -14.5195 28.0855
Si 12.4991 2.34836 0.42738 0 0 0 32.1189 30.1241 -36.8614 28.0855
Si 13.9115 1.05876 7.32374 0 0 0 20.427 -6.89733 -26.1452 28.0855
Si 10.2214 2.64513 9.12648 0 0 0 23.6196 -38.6215 -24.4857 28.0855
Si 12.492 2.9646 5.22904 0 0 0 61.1188 30.5468 -22.5753 28.0855
Si 5.72649 13.1286 14.0614 0 0 0 -32.4801 -20.0432 -63.0845 28.0855
Si 9.73394 2.97358 15.8525 0 0 0 -16.5044 -42.7543 -13.3436 28.0855
Si 12.5574 3.27229 11.1675 0 0 0 -2.11742 73.0498 -1.46184 28.0855
Si 12.0878 5.23972 1.51331 0 0 0 7.23727 42.8378 -10.9717 28.0855
Si 6.78574 6.67114 3.57521 0 0 0 -0.382346 -88.1561 -13.8717 28.0855
Si 9.97056 6.88485 16.9175 0 0 0 31.3482 41.2739 37.4836 28.0855
Si 11.1151 4.77076 7.15566 0 0 0 67.8977 -34.7211 -15.5226 28.0855
Si 7.34388 5.38015 9.03805 0 0 0 -6.94219 51.7171 0.67082 28.0855
Si 10.4115 7.78429 6.23521 0 0 0 28.7088 25.0719 -96.575 28.0855
Si 11.0229 4.59348 13.3981 0 0 0 49.844 8.30612 -67.2337 28.0855
Si 7.6521 6.35958 14.9043 0 0 0 -38.8447 40.7121 34.1227 28.0855
Si 9.49377 6.17165 11.1324 0 0 0 40.5683 50.0444 8.49736 28.0855
Si 8.5647 8.60856 1.71267 0 0 0 87.9123 39.7846 2.55558 28.0855
Si 5.25836 11.628 4.37191 0 0 0 59.8677 -33.7435 36.3674 28.0855
Si 7.72733 11.3456 0.50941 0 0 0 67.8858 21.4276 -36.0296 28.0855
Si 9.03078 10.2073 7.82008 0 0 0 -84.289 32.2458 0.591279 28.0855
Si 4.25179 10.9566 10.2771 0 0 0 -96.4068 31.9903 0.0495017 28.0855
Si 7.66069 12.2228 5.83192 0 0 0 -56.8244 14.504 -13.561 28.0855
Si 8.43443 8.51769 12.8458 0 0 0 84.1767 -23.6635 36.1349 28.0855
Si 4.36124 10.7094 15.6234 0 0 0 6.52663 -35.1823 -49.7015 28.0855
Si 7.05244 11.2621 11.9024 0 0 0 4.74313 -3.99489 7.75957 28.0855
H 0.34835 1.64891 1.84917 0 0 0 -20.8965 -20.4913 41.8849 1.00794
H 0.77111 3.49142 15.6501 0 0 0 22.0556 -13.569 36.5075 1.00794
H 0.48098 2.77371 7.73989 0 0 0 -23.8046 10.4186 -0.31226 1.00794
H 11.1866 9.01769 10.1018 0 0 0 1.89717 -3.93571 1.4019 1.00794
H -0.81492 8.93847 5.56327 0 0 0 15.4004 -50.0516 2.99793 1.00794
H -1.6542 5.01397 12.8398 0 0 0 7.45491 -5.18947 0.14175 1.00794
H 0.3553 3.75321 13.3872 0 0 0 -4.96142 4.54976 -2.28578 1.00794
H 8.17181 3.1449 1.74443 0 0 0 -2.13947 -2.12252 -7.18622 1.00794
H 2.37213 2.16541 7.83411 0 0 0 24.4669 -3.81824 8.84644 1.00794
H 7.34704 1.67181 4.03 0 0 0 0.598607 -10.5506 13.2828 1.00794
H 6.63484 1.59432 10.3215 0 0 0 4.61039 1.4982 0.680399 1.00794
H 3.18374 1.73186 3.55313 0 0 0 4.80667 -5.87401 -2.94918 1.00794
H 1.14632 6.91077 10.362 0 0 0 0.109977 -4.72533 -5.58834 1.00794
H -0.42851 7.1066 16.9393 0 0 0 2.82876 -3.49609 1.38996 1.00794
H 2.33967 12.151 6.74519 0 0 0 3.21003 -2.09756 -5.6127 1.00794
H 0.11611 10.7852 14.8252 0 0 0 -12.0343 1.98391 -2.25463 1.00794
H 10.2284 1.4523 8.25699 0 0 0 -0.97224 3.71173 0.318519 1.00794
H 12.1429 2.46039 3.89201 0 0 0 9.57253 11.2117 1.44659 1.00794
H 13.668 3.87209 5.14668 0 0 0 -13.4148 -14.3741 -0.475384 1.00794
H 2.03275 12.8421 13.8081 0 0 0 -5.43502 -11.9604 -0.658321 1.00794
H -1.09466 4.26985 6.70603 0 0 0 1.62285 -4.60891 7.9054 1.00794
H 12.9163 4.67326 10.8185 0 0 0 -3.1858 -10.3509 9.68705 1.00794
H -4.10856 7.64567 11.5641 0 0 0 -6.79547 4.683 -10.2672 1.00794
H 9.40881 7.82645 5.14286 0 0 0 6.43597 3.23211 2.68222 1.00794
H 11.7752 8.09044 5.73749 0 0 0 -10.1195 -7.64222 -3.07977 1.00794
H -3.27987 7.01528 16.0281 0 0 0 -4.43025 19.0367 -12.5815 1.00794
H 6.65584 6.59752 15.9531 0 0 0 27.4096 -8.61349 -4.40022 1.00794
H 9.67328 9.24189 2.44209 0 0 0 -5.79936 -4.68521 -5.60949 1.00794
H 4.21211 7.89989 3.10464 0 0 0 -11.6827 5.75124 -1.91699 1.00794
H 3.65699 12.2635 9.95549 0 0 0 -1.18699 -1.12518 2.46597 1.00794
H 8.1323 12.3677 4.4508 0 0 0 -9.58424 -4.07841 6.08565 1.00794
H 10.2633 10.3818 16.593 0 0 0 4.1338 8.37766 6.6673 1.00794
H 7.13378 11.4334 16.3904 0 0 0 9.35487 10.796 7.90679 1.00794
H 2.27383 1.19596 0.43077 0 0 0 -6.26407 8.85775 -8.65959 1.00794
H 2.21581 2.61076 1.50309 0 0 0 4.13344 7.13799 5.65306 1.00794
H 2.74687 2.70478 17.2574 0 0 0 5.72864 2.87962 -0.920601 1.00794
H -0.94248 4.76257 0.08675 0 0 0 5.64316 -7.13819 -10.1383 1.00794
H 0.47126 4.84659 1.16122 0 0 0 6.39175 1.53739 1.65292 1.00794
H -0.82902 3.66557 1.46484 0 0 0 -2.14099 -3.7541 3.8258 1.00794
H -1.88037 4.67543 9.81192 0 0 0 0.768854 0.852731 -3.64405 1.00794
H -0.48402 5.5433 9.18165 0 0 0 -1.13127 4.83124 -3.42043 1.00794
H -0.23402 4.15036 10.2546 0 0 0 6.5561 -5.25073 0.637139 1.00794
H 9.85494 10.3935 4.44145 0 0 0 -9.60793 3.85904 0.328373 1.00794
H -5.21696 10.2778 5.09563 0 0 0 0.0731243 4.73751 -1.01872 1.00794
H -5.46229 10.4655 3.34878 0 0 0 3.2385 0.41805 -2.7504 1.00794
H 2.13692 0.65831 6.25083 0 0 0 0.158562 1.8209 -4.65543 1.00794
H -5.30899 12.6196 6.94978 0 0 0 2.04854 -6.22211 1.37262 1.00794
H -6.78591 13.5371 6.60132 0 0 0 11.8919 2.6777 -2.70608 1.00794
H 16.1675 0.00346 13.0628 0 0 0 0.114279 -5.21355 1.39595 1.00794
H 0.84688 0.95608 12.5046 0 0 0 4.39671 0.135436 3.64583 1.00794
H -0.12557 1.54711 13.8426 0 0 0 5.64635 -3.42522 0.231263 1.00794
H 3.6196 0.84349 14.2751 0 0 0 1.30043 -4.07292 0.670106 1.00794
H 3.26126 0.65374 15.9999 0 0 0 -13.9363 0.783772 2.28312 1.00794
H 2.49505 1.95081 15.0696 0 0 0 -4.32591 2.67456 -5.61989 1.00794
H -1.84552 5.494 4.77982 0 0 0 9.10095 5.51322 1.89207 1.00794
H -1.13793 6.60864 3.57987 0 0 0 9.05193 2.62392 0.449508 1.00794
H -2.71196 6.97781 4.31895 0 0 0 -3.72927 5.36893 1.98641 1.00794
H -3.39204 10.4276 17.1817 0 0 0 -3.31674 -9.68223 -7.04118 1.00794
H -1.83458 9.2036 0.10959 0 0 0 4.99326 -2.05216 -4.82947 1.00794
H -3.28714 9.21632 1.13365 0 0 0 -8.10608 -0.585737 2.95512 1.00794
H -4.27018 10.0876 8.01389 0 0 0 -2.89868 2.62053 3.95237 1.00794
H -3.63091 9.63223 6.42754 0 0 0 7.91972 -4.27095 -0.449488 1.00794
H -2.70469 10.7224 7.46787 0 0 0 -2.54831 0.658787 5.06253 1.00794
H -0.28512 0.46617 8.85242 0 0 0 -3.04783 -4.58982 -0.763556 1.00794
H 1.42988 0.45454 9.26013 0 0 0 1.53288 -6.09168 2.4526 1.00794
H 0.22279 0.95679 10.4782 0 0 0 -3.04123 1.67376 -0.0788398 1.00794
H -1.63939 8.49253 11.799 0 0 0 -3.12112 3.66645 0.205594 1.00794
H -2.22194 7.36535 13.0351 0 0 0 3.5291 3.56611 3.18895 1.00794
H -0.88913 8.4731 13.4063 0 0 0 -0.43433 0.526542 4.42441 1.00794
H -3.82845 12.4246 0.24187 0 0 0 -2.72994 4.3338 -8.30057 1.00794
H -4.45486 11.3688 1.52612 0 0 0 -2.15023 -5.90528 1.71409 1.00794
H -4.95156 13.0582 1.47589 0 0 0 -1.93131 -6.74502 6.4287 1.00794
H 11.0472 0.72594 3.90744 0 0 0 -15.7019 -0.469982 -0.833025 1.00794
H 9.67814 0.26947 4.92961 0 0 0 -2.46485 -5.18666 1.48028 1.00794
H 9.54221 1.66708 3.84087 0 0 0 1.33018 5.88704 -2.26599 1.00794
H 6.15827 0.58404 2.27993 0 0 0 -6.74626 0.38664 12.6139 1.00794
H 4.66006 0.51548 1.30875 0 0 0 -13.2718 -5.49466 3.0745 1.00794
H -2.10379 12.6652 2.15288 0 0 0 1.12203 -6.26111 -0.959671 1.00794
H 1.51873 13.5574 0.18326 0 0 0 6.23839 3.64965 10.2389 1.00794
H 9.55388 1.40796 0.94382 0 0 0 2.14793 -4.4808 10.8232 1.00794
H 7.83826 0.9898 1.2123 0 0 0 14.7017 -19.7112 10.2909 1.00794
H 5.99761 1.67571 0.33056 0 0 0 6.19759 13.772 -9.03715 1.00794
H 6.6339 1.68474 16.1551 0 0 0 2.43974 4.50089 0.420193 1.00794
H 5.3829 2.90887 16.4384 0 0 0 -2.46224 0.732447 7.14255 1.00794
H 5.25073 0.15023 8.88058 0 0 0 3.02988 5.21037 1.60782 1.00794
H 4.48334 0.09286 7.27012 0 0 0 0.400249 -0.896115 -3.41589 1.00794
H -3.76621 13.1602 8.70322 0 0 0 -6.29347 -1.28899 -2.44974 1.00794
H 8.47687 1.33061 6.77828 0 0 0 2.69737 2.70148 -0.939326 1.00794
H 0.39791 13.3407 6.4318 0 0 0 -2.25235 -3.08894 -6.59447 1.00794
H 6.98724 0.84827 7.61214 0 0 0 -3.49422 2.79234 2.22727 1.00794
H 4.36517 2.2627 10.9022 0 0 0 7.32058 -1.95089 -2.97266 1.00794
H 2.59394 2.15978 10.7698 0 0 0 -7.26781 -0.37344 -3.52068 1.00794
H 3.42744 3.67991 10.3821 0 0 0 0.492505 -1.32158 -1.04826 1.00794
H 6.1777 2.93284 2.88939 0 0 0 -1.45749 12.9955 -12.5091 1.00794
H 4.66649 2.62828 1.98147 0 0 0 -1.77199 15.596 -12.5969 1.00794
H 4.63638 3.6065 3.46342 0 0 0 -3.46862 5.2953 5.085 1.00794
H 2.49744 4.92182 3.37121 0 0 0 5.30147 0.57473 -3.72355 1.00794
H 0.75457 4.87754 3.69746 0 0 0 -7.75618 6.19259 -1.99216 1.00794
H 1.90358 4.27471 4.91856 0 0 0 7.50476 5.20704 6.83334 1.00794
H 1.82531 4.31214 8.84963 0 0 0 -0.813476 1.94663 5.96769 1.00794
H 3.06441 5.03875 7.81096 0 0 0 1.81561 3.67295 -0.481048 1.00794
H 1.35952 5.51724 7.62232 0 0 0 0.666342 -4.71916 7.28512 1.00794
H 5.45583 2.18966 14.2937 0 0 0 10.2359 -4.6062 -5.30335 1.00794
H 4.35131 2.83185 13.0616 0 0 0 -3.41312 -1.49128 -0.459126 1.00794
H 4.48063 3.64646 14.6257 0 0 0 -2.67625 9.80431 -0.207644 1.00794
H 0.38393 9.36767 2.01445 0 0 0 2.72545 3.0494 -1.03805 1.00794
H -1.19313 10.1788 2.03471 0 0 0 -0.058592 2.39208 0.0254463 1.00794
H -0.86691 8.86392 3.17103 0 0 0 -0.689602 -0.383593 2.88962 1.00794
H -1.6738 10.6125 5.49498 0 0 0 -17.4312 33.3971 -3.20151 1.00794
H -2.33045 11.5449 4.16269 0 0 0 13.4694 -18.3381 -5.70587 1.00794
H -1.41292 12.36 5.43552 0 0 0 9.566 -3.53586 2.31611 1.00794
H 0.40109 10.0761 7.27672 0 0 0 -9.49821 -13.7105 10.0679 1.00794
H 0.90181 11.521 8.18829 0 0 0 -2.08827 2.0899 10.1899 1.00794
H -0.71186 11.448 7.47615 0 0 0 -1.35082 3.86922 5.3419 1.00794
H -1.60906 11.2105 11.5531 0 0 0 8.06492 -7.12151 1.56335 1.00794
H -2.49699 11.4512 10.0418 0 0 0 -2.4854 -5.52923 -6.3372 1.00794
H -1.04539 12.4191 10.387 0 0 0 7.53742 3.67202 -2.00549 1.00794
H -3.40775 13.2521 10.8206 0 0 0 -6.252 -1.22186 4.58975 1.00794
H -2.71033 13.2228 12.4506 0 0 0 1.49879 -2.39856 4.29798 1.00794
H 3.13562 0.52617 12.1312 0 0 0 -0.511041 0.123272 -0.529281 1.00794
H 6.75403 7.8915 10.9316 0 0 0 -28.6083 -11.3165 -14.0475 1.00794
H 5.36656 8.47838 11.862 0 0 0 14.3913 9.39289 -12.5336 1.00794
H 5.29959 8.39797 10.094 0 0 0 10.4829 -18.4097 9.91927 1.00794
H 2.67287 6.78016 12.9753 0 0 0 -5.65055 -2.86057 0.286508 1.00794
H 3.59498 6.76232 14.4849 0 0 0 -3.42366 -3.5878 -0.756228 1.00794
H 4.14191 7.75153 13.1168 0 0 0 -25.1901 -4.13351 28.0702 1.00794
H 0.88338 9.99429 16.8288 0 0 0 0.473908 -6.21212 5.41489 1.00794
H 1.22842 11.6804 16.4401 0 0 0 13.1201 4.32139 1.1762 1.00794
H 0.58398 11.3009 0.58 0 0 0 -2.93467 0.0900929 4.96972 1.00794
H -1.87859 11.8509 16.9501 0 0 0 5.18772 1.30408 1.56273 1.00794
H -2.3402 13.2843 16.0002 0 0 0 14.3626 -7.39159 -1.28214 1.00794
H -0.72102 13.1655 16.7137 0 0 0 1.81027 -4.72675 -5.43827 1.00794
H -0.78185 1.81502 5.33636 0 0 0 2.47361 4.08237 -4.48575 1.00794
H -0.82892 3.20676 4.22782 0 0 0 -4.95035 3.05845 -5.98038 1.00794
H 0.73126 2.56488 4.80147 0 0 0 2.56805 -11.057 -0.74805 1.00794
H 8.59997 0.8056 15.6036 0 0 0 1.07514 0.0881072 -1.78649 1.00794
H 9.64773 1.22309 14.2389 0 0 0 6.03368 21.7896 13.5438 1.00794
H 8.05199 1.97963 14.365 0 0 0 -4.60936 7.52586 0.897877 1.00794
H 11.3891 1.12249 13.1189 0 0 0 5.8918 -5.49096 7.4439 1.00794
H 3.81846 13.024 12.5957 0 0 0 4.36473 -2.6885 -5.35137 1.00794
H 12.421 0.43268 11.8566 0 0 0 -1.30629 -11.4791 -2.18879 1.00794
H -1.74387 2.87358 11.2436 0 0 0 0.183292 -1.98431 4.93512 1.00794
H 14.1506 1.39864 10.7365 0 0 0 -1.95877 -3.66985 -5.47125 1.00794
H 14.1522 1.88418 12.4537 0 0 0 0.138946 1.071 5.27103 1.00794
H 12.095 5.70046 3.92785 0 0 0 4.79949 -0.235676 1.36814 1.00794
H 10.5479 4.97901 3.45748 0 0 0 5.13934 -9.52564 -5.64673 1.00794
H 10.8806 6.68786 3.09029 0 0 0 -1.08877 4.74691 -2.66416 1.00794
H -3.04198 7.14199 1.63643 0 0 0 -5.24193 -2.13547 6.15487 1.00794
H -2.57346 6.01135 0.34876 0 0 0 -4.79632 -11.5349 11.3033 1.00794
H -2.29765 5.59074 2.0486 0 0 0 0.299519 -5.97844 -0.801789 1.00794
H 13.4945 5.42993 7.16715 0 0 0 -4.20387 -0.0240688 -9.58242 1.00794
H 13.1933 3.85003 7.93579 0 0 0 -20.4841 13.0234 4.22192 1.00794
H 12.8292 5.34775 8.80177 0 0 0 -5.9531 -15.4064 -2.79552 1.00794
H 8.74042 5.69017 4.69584 0 0 0 -0.786214 2.83024 4.13105 1.00794
H 8.43483 4.94588 3.11379 0 0 0 -4.55519 0.252689 -4.90955 1.00794
H 7.44245 4.49272 4.52043 0 0 0 19.8393 27.714 -26.6086 1.00794
H 12.9791 5.95676 12.9098 0 0 0 -5.96583 -10.1454 -3.72845 1.00794
H 12.9931 5.39142 14.5998 0 0 0 1.1211 -7.72763 3.63506 1.00794
H 11.9465 6.74977 14.1036 0 0 0 -8.79857 -11.7286 -10.705 1.00794
H 3.66929 8.45864 16.5854 0 0 0 -14.331 -33.2873 18.1468 1.00794
H 4.81301 7.15504 16.1736 0 0 0 -23.5579 -1.583 4.32078 1.00794
H 5.10589 7.86812 0.48158 0 0 0 3.53012 1.17579 4.10213 1.00794
H 6.99956 10.2964 3.39481 0 0 0 3.39727 6.3935 4.62504 1.00794
H 5.50647 10.0335 2.4761 0 0 0 -9.39102 3.91576 -6.16441 1.00794
H 5.72596 9.2949 4.08733 0 0 0 -6.74825 17.952 -1.23599 1.00794
H 6.93223 7.48345 7.89449 0 0 0 20.594 -45.507 11.6021 1.00794
H 8.02616 6.44486 6.96311 0 0 0 -7.2346 -6.43995 -5.10194 1.00794
H 8.63285 7.34069 8.37358 0 0 0 -1.08823 -7.7722 15.2493 1.00794
H 7.47624 9.17425 9.4567 0 0 0 14.194 3.18784 -1.21158 1.00794
H 6.72285 9.37732 7.84717 0 0 0 6.11873 37.7872 -8.34606 1.00794
H 6.99525 10.777 8.87547 0 0 0 -3.24162 2.27096 -1.82977 1.00794
H 6.37787 13.1126 9.20583 0 0 0 4.83696 0.116629 1.61187 1.00794
H 5.0983 12.838 7.99723 0 0 0 -4.16985 -2.69211 -4.2946 1.00794
H 12.309 0.60119 9.15502 0 0 0 2.13147 -3.69734 -1.86736 1.00794
H 9.68753 9.85601 14.4944 0 0 0 -10.2907 3.61029 0.908624 1.00794
H 10.5884 9.58422 12.9917 0 0 0 -14.0112 -12.6673 -1.41572 1.00794
H 10.4408 8.28646 14.1784 0 0 0 -6.9005 -4.47799 -5.35333 1.00794
H 5.45629 8.76215 14.6021 0 0 0 -2.85096 0.450021 -3.30844 1.00794
H 6.20616 9.13373 16.1604 0 0 0 -0.304708 -0.86233 5.23803 1.00794
H 6.57055 10.1244 14.7392 0 0 0 2.59137 0.928235 -2.16023 1.00794
C 2.18946 2.28532 0.45649 0 0 0 5.26459 6.9958 -6.1463 12.0107
C -0.24328 4.16404 0.68068 0 0 0 0.838531 -0.0442321 5.88113 12.0107
C -0.85755 4.54429 9.43949 0 0 0 -0.487917 7.67611 -1.63391 12.0107
C -5.84354 10.7633 4.33487 0 0 0 2.0275 -2.48557 8.92312 12.0107
C -5.78218 13.309 6.23692 0 0 0 5.59313 -1.1882 9.04091 12.0107
C 0.27826 0.63588 13.3898 0 0 0 0.493386 8.68649 -4.9568 12.0107
C 2.82582 0.90488 15.0265 0 0 0 0.724772 4.82834 -2.79975 12.0107
C -1.71627 6.55243 4.51208 0 0 0 -6.558 -2.20089 -4.65297 12.0107
C -2.9181 9.39335 0.11552 0 0 0 5.54162 0.379943 -1.16431 12.0107
C -3.3489 9.83567 7.46751 0 0 0 -7.68375 4.70367 -2.55578 12.0107
C 0.42796 0.25564 9.65918 0 0 0 5.56125 10.1947 -5.46648 12.0107
C -1.84294 8.38049 12.8711 0 0 0 12.6801 -6.7549 -2.55157 12.0107
C -4.71151 12.1923 0.84851 0 0 0 2.98879 2.89676 4.83373 12.0107
C 9.95797 0.65499 3.94203 0 0 0 1.41913 6.87363 0.214738 12.0107
C 5.14889 0.16627 2.22569 0 0 0 1.76231 -13.2107 2.54861 12.0107
C 8.84437 0.58681 1.08548 0 0 0 9.02072 -0.833079 6.79494 12.0107
C 6.17073 2.31532 16.917 0 0 0 -4.70915 1.65823 -9.85759 12.0107
C 4.31122 0.3045 8.33415 0 0 0 -1.97679 -1.35458 -2.58054 12.0107
C 7.52093 0.80123 6.65407 0 0 0 7.59379 -0.948923 7.77597 12.0107
C 3.49747 2.58761 10.3142 0 0 0 1.72927 -3.2967 1.51685 12.0107
C 5.22294 3.36306 2.56814 0 0 0 2.41408 7.95619 8.03846 12.0107
C 1.73671 5.04537 4.15402 0 0 0 -1.66695 -6.40471 -7.41194 12.0107
C 2.13034 5.23799 8.34973 0 0 0 2.0675 -1.204 -5.76942 12.0107
C 5.05548 3.11041 13.8581 0 0 0 -8.01332 -0.981346 -0.865247 12.0107
C -0.41474 9.72711 2.66838 0 0 0 -9.55537 -2.19388 1.86043 12.0107
C -1.4643 11.4537 4.82651 0 0 0 -10.7797 -2.31528 1.95391 12.0107
C 0.05918 10.8491 7.97373 0 0 0 0.538034 7.37082 -2.02507 12.0107
C -1.49399 11.4234 10.4868 0 0 0 -3.1961 4.14474 -1.47743 12.0107
C -3.64938 13.2048 11.8842 0 0 0 6.59052 6.319 -0.52537 12.0107
C 5.66344 7.89224 10.9912 0 0 0 6.72631 7.72187 -9.38212 12.0107
C 3.26174 7.40364 13.6632 0 0 0 5.14146 -6.39629 -12.1599 12.0107
C 1.11808 10.972 17.2676 0 0 0 -3.62055 -3.92594 -5.9474 12.0107
C -1.51808 12.5964 16.2305 0 0 0 -6.79311 1.2622 5.70392 12.0107
C -0.28125 2.29092 4.48476 0 0 0 2.03255 1.53237 5.68165 12.0107
C 8.91039 1.62074 14.9421 0 0 0 3.74501 6.25125 -2.83215 12.0107
C 11.9093 0.21456 12.7994 0 0 0 -4.07829 1.4938 -7.52667 12.0107
C 14.0934 2.25112 11.4233 0 0 0 12.0528 7.86114 -1.00977 12.0107
C 11.3257 5.68212 3.14362 0 0 0 1.68887 9.21509 7.87351 12.0107
C -2.99257 6.08209 1.35687 0 0 0 3.92674 4.75141 6.05624 12.0107
C 12.8151 4.87237 7.8218 0 0 0 7.61144 7.02108 12.3463 12.0107
C 7.95301 5.32467 4.02493 0 0 0 5.95869 -10.6619 2.40754 12.0107
C 12.3581 5.78338 13.7966 0 0 0 6.92918 4.57854 -1.45206 12.0107
C 4.1584 7.55556 16.953 0 0 0 6.90934 8.64197 1.44484 12.0107
C 5.91244 10.1845 3.47874 0 0 0 7.14915 -11.4796 -1.30348 12.0107
C 7.77605 6.80022 7.96767 0 0 0 -4.58605 0.358604 -0.616632 12.0107
C 7.41574 9.81056 8.57038 0 0 0 -8.9601 9.33762 7.7916 12.0107
C 13.0041 0.02246 8.5408 0 0 0 -0.994343 -6.1727 3.65645 12.0107
C 9.91092 9.12015 13.7132 0 0 0 15.3986 4.81747 10.7551 12.0107
C 5.77668 9.57787 15.2573 0 0 0 6.60438 -6.4761 -2.27855 12.0107
O -6.67567 13.3798 3.46762 0 0 0 -19.3302 -66.5296 -57.2994 15.9994
O -0.78186 1.70202 16.4592 0 0 0 36.8665 -46.6101 26.3169 15.9994
O -1.84201 3.31754 14.6659 0 0 0 -76.1695 18.4858 -30.4764 15.9994
O -3.73935 7.5262 9.05512 0 0 0 -8.43574 -51.3063 -29.2936 15.9994
O -1.76749 7.345 7.24614 0 0 0 -5.28299 -64.6139 12.4674 15.9994
O -3.95906 9.03539 14.7039 0 0 0 -80.3701 10.1032 -25.588 15.9994
O -6.70072 12.8099 15.8948 0 0 0 -75.2794 52.3635 6.01461 15.9994
O -5.94473 11.6392 11.2756 0 0 0 -0.660783 -54.3543 0.793588 15.9994
O -3.99761 10.272 12.3225 0 0 0 13.3539 -34.6782 -48.1145 15.9994
O -5.30062 12.0091 13.8367 0 0 0 -5.37086 -36.2341 38.3209 15.9994
O -4.11369 12.8698 4.05675 0 0 0 8.44354 -51.5204 -6.22568 15.9994
O 5.11022 0.95319 5.01034 0 0 0 -31.0239 -32.9643 63.0869 15.9994
O 8.36231 0.80477 12.0031 0 0 0 79.0884 30.7088 9.33446 15.9994
O 6.78227 4.89931 0.62246 0 0 0 20.214 14.0392 -19.5217 15.9994
O 0.69005 6.97737 6.02954 0 0 0 8.42251 -10.687 64.1753 15.9994
O 4.07022 5.00845 0.66174 0 0 0 -18.8749 -46.4471 -17.9454 15.9994
O 4.70255 3.08723 7.77368 0 0 0 -45.9655 4.68229 3.67761 15.9994
O 6.33172 3.21446 5.71434 0 0 0 -11.1264 2.59349 -29.0698 15.9994
O 3.37591 6.76553 5.60584 0 0 0 -22.3196 12.4825 21.055 15.9994
O 5.34447 5.43512 6.71577 0 0 0 -10.8583 9.6793 48.929 15.9994
O 7.29241 3.25672 12.1226 0 0 0 52.7577 50.8352 0.396156 15.9994
O -0.35581 5.73218 14.8385 0 0 0 -51.8933 38.8832 -29.4413 15.9994
O 1.79993 5.89408 16.4117 0 0 0 8.62848 -51.6404 -30.0171 15.9994
O 3.48018 6.08036 10.7059 0 0 0 -39.1607 -21.2891 56.3097 15.9994
O 5.52242 5.33486 12.2891 0 0 0 -42.9739 41.2933 58.2092 15.9994
O 1.80146 7.93125 3.81338 0 0 0 -27.2278 42.8484 7.94197 15.9994
O 2.4193 6.95299 1.49494 0 0 0 -37.9839 -17.1045 7.93139 15.9994
O 0.66132 12.3324 3.04379 0 0 0 -69.4614 44.2745 -28.2375 15.9994
O 2.86814 9.55217 1.8566 0 0 0 -14.4092 31.6204 23.2259 15.9994
O 3.16204 12.1376 1.97426 0 0 0 36.5338 29.0262 26.096 15.9994
O 2.84165 7.96432 8.81382 0 0 0 -73.5281 29.2636 26.5209 15.9994
O 4.95623 8.07101 7.20519 0 0 0 36.5811 12.136 17.6145 15.9994
O -1.46321 8.81081 9.40631 0 0 0 6.63507 -25.5023 36.7359 15.9994
O 1.22523 10.61 4.98942 0 0 0 -35.7677 -89.9201 -1.03063 15.9994
O 2.91644 9.67881 6.74086 0 0 0 -59.6158 -58.5689 -30.9061 15.9994
O 1.02064 8.13024 15.1946 0 0 0 -38.9517 67.0024 23.8862 15.9994
O -2.27923 10.9668 14.0984 0 0 0 -48.917 43.2879 2.54659 15.9994
O -0.49688 12.8775 13.5552 0 0 0 -40.5873 24.9646 -1.85722 15.9994
O 0.80345 9.60421 10.3962 0 0 0 15.7319 -57.174 -32.2908 15.9994
O 1.35154 9.41634 12.9644 0 0 0 -75.8032 -23.6999 10.8548 15.9994
O 1.20615 11.8009 11.7211 0 0 0 -20.2762 30.54 -62.8145 15.9994
O 14.9267 0.75089 2.68412 0 0 0 -9.81437 53.3315 16.7063 15.9994
O 13.4574 2.53862 16.7422 0 0 0 22.2038 82.2713 15.8777 15.9994
O 12.6622 0.98504 1.31989 0 0 0 -83.7045 -42.8547 -1.78025 15.9994
O 14.7466 2.25686 8.05784 0 0 0 -13.6336 9.47775 92.4062 15.9994
O 8.973 2.55291 10.1582 0 0 0 -11.4501 68.7454 4.83964 15.9994
O 12.8849 1.70201 6.21344 0 0 0 -70.4289 -59.8598 -12.2593 15.9994
O 13.943 0.71459 14.8598 0 0 0 26.862 -26.5184 -7.38879 15.9994
O 10.8577 2.26282 16.8179 0 0 0 -25.894 -80.3299 -6.41055 15.9994
O 8.66192 3.80875 16.7739 0 0 0 10.0774 73.8901 -15.3359 15.9994
O 11.6309 2.64559 9.95918 0 0 0 51.3163 -56.1395 -24.5315 15.9994
O 12.3698 3.61462 1.43899 0 0 0 4.37473 -13.59 91.5267 15.9994
O 5.58303 6.16711 2.57241 0 0 0 -44.4153 22.1603 3.66508 15.9994
O 5.99134 7.2587 4.90666 0 0 0 41.4158 64.5029 5.12605 15.9994
O 11.123 7.97752 16.5263 0 0 0 -34.9849 88.2051 6.69246 15.9994
O 11.0415 5.63979 0.29044 0 0 0 -13.1321 -79.1395 -30.4728 15.9994
O 10.1151 4.00434 8.2165 0 0 0 -53.2423 42.247 13.8734 15.9994
O 11.1917 3.81292 5.80097 0 0 0 -42.4223 5.22018 -23.4171 15.9994
O 7.19232 4.03241 8.08635 0 0 0 49.1081 -17.2306 14.176 15.9994
O 5.83042 5.44617 9.6727 0 0 0 -44.5099 -13.377 -30.0913 15.9994
O 10.4687 6.24112 6.80468 0 0 0 -61.7615 1.24461 44.3274 15.9994
O 10.416 3.98248 14.775 0 0 0 11.3677 60.52 47.2242 15.9994
O 11.6382 3.3358 12.5355 0 0 0 -1.02904 -49.1102 23.5583 15.9994
O 7.33535 4.91007 14.1988 0 0 0 59.4408 -63.4988 33.5531 15.9994
O 9.15505 6.44752 15.5713 0 0 0 56.9072 -49.4259 -64.1495 15.9994
O 10.8228 6.4721 10.2185 0 0 0 17.5272 -40.3198 -44.8748 15.9994
O 8.40999 5.30873 10.2842 0 0 0 -2.54403 -98.3622 17.076 15.9994
O 9.86891 5.34034 12.4837 0 0 0 -66.8621 -12.9352 60.9845 15.9994
O 7.61109 7.84579 2.79006 0 0 0 -14.0191 47.8029 50.0238 15.9994
O 9.19648 7.55789 0.63569 0 0 0 -56.0488 -55.1396 0.93692 15.9994
O 5.46772 13.0383 3.54091 0 0 0 -41.7343 42.8641 26.4326 15.9994
O 3.70725 11.4222 4.80124 0 0 0 -41.1869 14.9502 -82.0028 15.9994
O 9.22746 11.9149 0.81741 0 0 0 16.071 25.2678 38.5104 15.9994
O 7.6763 9.75344 0.93505 0 0 0 -73.4415 -28.9013 -24.8556 15.9994
O 6.64593 12.2459 1.31864 0 0 0 -78.909 -49.7386 -3.32255 15.9994
O 9.99857 8.95632 7.33196 0 0 0 51.4912 -20.6722 67.473 15.9994
O 9.86778 11.0976 8.9149 0 0 0 66.3262 -11.7298 -11.1174 15.9994
O 4.40963 10.1026 8.88494 0 0 0 80.1252 28.4756 -37.5741 15.9994
O 3.26173 10.1529 11.3088 0 0 0 36.1245 -43.7684 34.1357 15.9994
O 6.09979 11.7226 5.8025 0 0 0 -17.5182 -22.2063 17.7924 15.9994
O 8.67976 11.1551 6.51992 0 0 0 61.8153 -30.2664 -43.6866 15.9994
O 15.0359 0.08558 6.59452 0 0 0 46.4956 27.2016 8.62332 15.9994
O 7.50984 7.53073 13.772 0 0 0 -77.2522 26.5855 -2.98417 15.9994
O 8.86947 7.63696 11.5157 0 0 0 -2.14 47.0648 -50.0226 15.9994
O 2.99546 10.0796 14.8931 0 0 0 -30.2712 74.0383 -15.346 15.9994
O 4.79687 12.2184 15.0886 0 0 0 -43.9459 54.8633 49.9723 15.9994
O 3.96906 10.8323 17.223 0 0 0 86.6268 -3.95447 50.2165 15.9994
O 8.16892 11.933 10.9242 0 0 0 -26.4157 61.5465 -37.36 15.9994
O 5.67142 11.1701 11.0381 0 0 0 12.7243 14.6999 -16.0225 15.9994
O 7.51885 9.77931 12.3473 0 0 0 -48.4568 -38.9776 -2.00232 15.9994
O 6.8147 12.1663 13.2511 0 0 0 61.2675 6.02455 54.6904 15.9994
386
Timestep=98 Time=98.000000 pbc="T T T" Lattice="16.7222 0 0 -7.3464 13.589 0 -0.307144 -0.017989 17.3161" Potential_energy=181.8202819357761 Temperature=0 Stress="14371.813529245517 -4161.139265432603 602.2242266972729 -4161.139265432603 11809.453438733895 759.7361377136747 602.2242266972729 759.7361377136747 19991.20105257922" Properties=species:S:1:pos:R:3:vel:R:3:forces:R:3:mass:R:1
Si 0.0380148 1.07038 3.18249 0 0 0 -0.0355537 -0.545651 0.0198568 28.0855
Si 0.530278 2.87068 16.9642 0 0 0 0.405447 0.709938 0.666538 28.0855
Si -0.96146 3.11571 8.01874 0 0 0 0.00441238 0.247603 0.196434 28.0855
Si -5.34771 12.5689 4.29782 0 0 0 0.0568834 -0.0531376 0.670571 28.0855
Si -5.89783 13.4058 14.5617 0 0 0 -0.154644 -0.132681 0.0294518 28.0855
Si 14.6087 2.41265 15.7267 0 0 0 0.902482 2.74891 2.48293 28.0855
Si 11.7925 7.71713 10.1849 0 0 0 0.013756 -0.395029 0.31238 28.0855
Si -0.847429 7.32647 5.78425 0 0 0 0.394467 0.529956 -0.160235 28.0855
Si -0.565138 4.62693 14.0191 0 0 0 0.242613 0.342385 -0.00669653 28.0855
Si -4.26422 7.99451 16.2879 0 0 0 -0.358918 -0.638279 -0.726504 28.0855
Si -2.70964 8.22754 8.07938 0 0 0 -0.364908 -0.0578204 0.204376 28.0855
Si 9.24946 11.6966 10.3641 0 0 0 -0.128367 -0.201165 -0.803542 28.0855
Si -3.49196 9.5718 13.8401 0 0 0 -0.0498008 0.390616 0.356579 28.0855
Si -6.19032 11.8145 17.0372 0 0 0 0.391065 0.696183 0.104763 28.0855
Si -5.18932 11.4967 12.3894 0 0 0 -0.253547 -0.267727 0.0120814 28.0855
Si 2.06655 13.1764 2.48388 0 0 0 -0.790297 0.305806 0.395469 28.0855
Si 4.37891 0.676593 3.67251 0 0 0 -0.0218057 0.454714 -0.132519 28.0855
Si 7.94956 3.44285 0.402496 0 0 0 -0.568806 -0.209683 0.445894 28.0855
Si 3.92728 2.08642 8.43603 0 0 0 -0.727018 0.0538761 -0.157369 28.0855
Si 6.79221 1.57771 5.27182 0 0 0 0.296251 -0.489736 -0.741434 28.0855
Si 0.300016 12.8674 12.7036 0 0 0 0.214909 -0.536884 0.897234 28.0855
Si 7.51397 2.06364 11.3049 0 0 0 0.111765 -0.669586 -0.325335 28.0855
Si 5.75659 5.12763 1.54948 0 0 0 -0.347781 -0.131782 -0.0962696 28.0855
Si 1.91888 6.4947 4.8294 0 0 0 -0.186915 -0.594112 0.739191 28.0855
Si 3.52046 6.22315 0.0442628 0 0 0 -0.931356 0.340778 -0.0123672 28.0855
Si 5.966 3.94597 6.97753 0 0 0 -0.455393 -0.120431 0.944525 28.0855
Si 2.18206 6.84236 9.51037 0 0 0 -0.531661 -0.351332 -0.32702 28.0855
Si 4.85142 6.74193 6.00568 0 0 0 -0.243385 0.125375 -0.838034 28.0855
Si 6.17143 4.41313 12.9911 0 0 0 -0.912428 -0.887732 1.08126 28.0855
Si 0.856949 6.85429 15.694 0 0 0 0.175128 0.876709 -6.41596e-05 28.0855
Si 4.87967 6.3021 10.9565 0 0 0 0.712045 -0.142713 -0.643083 28.0855
Si 2.77966 7.98131 2.32672 0 0 0 0.0641445 0.15777 -0.259655 28.0855
Si 0.21113 11.3363 3.87786 0 0 0 0.583208 -0.1177 0.469056 28.0855
Si 2.76855 10.723 0.914878 0 0 0 0.615034 -0.031032 0.363262 28.0855
Si 3.65159 8.96211 7.8121 0 0 0 -0.0794825 0.420867 -0.62978 28.0855
Si -0.801347 9.78751 9.72235 0 0 0 -0.19727 0.335543 0.603199 28.0855
Si 2.62631 11.0536 5.74291 0 0 0 -0.158089 0.741452 -0.776631 28.0855
Si 2.2197 9.33193 14.3564 0 0 0 0.827665 1.08561 0.628663 28.0855
Si -1.48632 11.5896 14.6224 0 0 0 -0.326097 0.421077 -0.352712 28.0855
Si 1.35712 10.346 11.6741 0 0 0 0.409853 -1.01348 -0.041926 28.0855
Si 6.69449 13.5289 2.27489 0 0 0 0.712712 1.08701 -0.489479 28.0855
Si 12.574 2.0009 0.412006 0 0 0 -0.382956 2.05096 0.0727913 28.0855
Si 13.9344 0.813727 7.44934 0 0 0 -0.470574 -0.235707 -0.135599 28.0855
Si 10.0011 2.56255 9.57061 0 0 0 0.428517 -0.28308 0.817081 28.0855
Si 12.5401 2.77979 5.51171 0 0 0 1.1394 0.58877 0.261357 28.0855
Si 5.85959 13.336 14.2628 0 0 0 0.42909 2.49927 0.0253188 28.0855
Si 10.111 2.96277 15.726 0 0 0 -0.232634 0.310753 0.195016 28.0855
Si 12.4297 3.10447 11.1218 0 0 0 -0.86891 -0.173798 0.34452 28.0855
Si 11.9006 4.7625 1.56379 0 0 0 0.362841 1.16556 -0.489641 28.0855
Si 6.67504 7.1648 3.55724 0 0 0 -0.612471 -0.649417 0.0372107 28.0855
Si 9.90399 6.74582 17.1263 0 0 0 -0.492785 0.977315 1.50432 28.0855
Si 10.8583 4.4656 7.3305 0 0 0 -0.391086 0.161941 -0.593539 28.0855
Si 7.14313 5.19409 9.34515 0 0 0 -0.41768 0.596833 -0.398431 28.0855
Si 10.459 7.50422 6.3035 0 0 0 0.145524 -1.19416 -0.292934 28.0855
Si 11.2254 4.6323 13.3789 0 0 0 0.223247 0.446885 -0.319341 28.0855
Si 7.70108 6.20181 14.936 0 0 0 -1.34141 0.12112 0.13463 28.0855