386
Timestep=0 Time=0.000000 pbc="T T T" Lattice="16.6078 0 0 -9.45048 13.4467 0 -1.07167 0.003425 17.3502" Potential_energy=1545.4985661658611 Temperature=0 Stress="110622.72724616824 9642.985523061701 -821.6172871201237 9642.985523061701 115017.33910909781 2561.7422028461533 -821.6172871201237 2561.7422028461533 110034.90709792987" Properties=species:S:1:pos:R:3:vel:R:3:forces:R:3:mass:R:1
Si -7.34519 13.136 2.52445 0 0 0 -11.7956 -17.0352 -9.90463 28.0855
Si 14.8294 2.17574 3.60195 0 0 0 12.8105 -63.7735 -4.87967 28.0855
Si 0.55865 1.52577 0.71269 0 0 0 -21.8891 -29.666 -14.0449 28.0855
Si -6.75292 13.0364 8.48203 0 0 0 1.45947 0.437598 -23.8265 28.0855
Si 13.6787 2.07845 10.2716 0 0 0 27.581 68.4325 12.3604 28.0855
Si 1.76149 0.98482 13.3392 0 0 0 27.6553 48.1749 -1.1304 28.0855
Si -0.31172 2.55626 11.8108 0 0 0 13.5323 9.15234 -0.348956 28.0855
Si -0.29262 4.29496 1.90829 0 0 0 -17.0264 -23.0036 11.2178 28.0855
Si -4.33344 6.51134 3.8427 0 0 0 -17.1103 23.6922 -62.7344 28.0855
Si -2.64424 6.31543 17.0654 0 0 0 27.625 -17.2938 -3.73487 28.0855
Si -1.27226 4.44079 7.32227 0 0 0 -20.5386 0.848716 -17.4321 28.0855
Si -2.882 6.83827 6.50133 0 0 0 -0.93122 32.6434 -0.08887 28.0855
Si -1.24334 4.72993 13.7948 0 0 0 -39.3376 -15.4741 55.0253 28.0855
Si 10.1184 7.4776 15.3749 0 0 0 1.92578 -49.0964 46.5304 28.0855
Si -2.74831 8.29146 1.86873 0 0 0 5.93707 10.689 23.3383 28.0855
Si 8.11363 11.0905 4.49798 0 0 0 -11.7424 -26.9113 -6.28839 28.0855
Si -4.10588 7.7026 9.12105 0 0 0 -35.7666 39.1153 -14.8106 28.0855
Si -4.3853 9.26228 13.7144 0 0 0 14.8703 -23.005 4.90493 28.0855
Si -5.39073 10.6809 11.2182 0 0 0 -8.81957 -14.0465 11.1674 28.0855
Si 8.02609 0.63219 1.81849 0 0 0 45.8555 9.81032 -9.43812 28.0855
Si 4.24436 1.59287 3.74267 0 0 0 -58.4112 37.7454 61.4377 28.0855
Si 5.80737 2.80869 17.1668 0 0 0 10.997 24.4054 5.48545 28.0855
Si -1.58667 12.4863 7.52759 0 0 0 20.7847 65.4423 22.3662 28.0855
Si 4.26762 1.95923 9.94936 0 0 0 18.851 33.049 -7.3242 28.0855
Si 5.97985 1.16357 6.04802 0 0 0 17.354 86.0828 -19.2898 28.0855
Si 7.27575 0.12198 14.3773 0 0 0 -28.0973 -4.6337 -21.8221 28.0855
Si 3.6518 2.98209 14.8631 0 0 0 -48.2297 67.8455 -21.4096 28.0855
Si 6.96263 2.7881 10.5275 0 0 0 -9.92873 -6.37845 -18.3536 28.0855
Si 5.21147 3.98676 2.10355 0 0 0 -24.6569 -69.6574 -17.6002 28.0855
Si 1.40386 6.45132 3.56223 0 0 0 -56.9023 53.1466 39.124 28.0855
Si 2.43406 7.86711 16.9551 0 0 0 -7.15847 -5.68725 18.6363 28.0855
Si 4.37868 3.3843 7.40758 0 0 0 53.3706 43.1124 -9.53384 28.0855
Si 0.2363 6.18122 9.44905 0 0 0 18.0051 52.0538 -1.13472 28.0855
Si 2.65925 5.50817 6.15009 0 0 0 -11.0441 44.6163 53.8108 28.0855
Si 4.94349 4.52544 12.3804 0 0 0 -26.174 67.5342 10.2966 28.0855
Si -0.11459 7.18502 15.3 0 0 0 24.338 -12.2862 9.1729 28.0855
Si 3.14346 6.05129 10.5109 0 0 0 34.4962 89.3666 69.6456 28.0855
Si 2.00759 9.06552 1.92502 0 0 0 -88.2346 14.6132 -8.70092 28.0855
Si -2.72684 10.4763 9.66251 0 0 0 -3.47595 2.95548 15.2877 28.0855
Si -0.0659 12.0884 4.90102 0 0 0 -46.6372 27.7432 -62.0226 28.0855
Si 1.13904 9.21439 13.4197 0 0 0 32.8101 -34.148 33.5899 28.0855
Si -3.81827 11.4649 15.7732 0 0 0 -9.43224 -48.1942 -1.09721 28.0855
Si 0.11473 10.8426 10.8949 0 0 0 40.7907 52.8536 20.8832 28.0855
Si 13.3861 0.18575 1.56554 0 0 0 46.6505 -16.7846 0.479571 28.0855
Si 9.85287 2.59308 3.5233 0 0 0 61.2632 81.3308 -3.86566 28.0855
Si 11.2383 2.49009 17.1842 0 0 0 63.6398 -2.90757 -37.6796 28.0855
Si 13.0932 0.04386 7.73527 0 0 0 26.3347 -16.8037 -33.9319 28.0855
Si 12.2105 2.12761 5.4552 0 0 0 0.354644 -1.20024 -7.507 28.0855
Si 13.2924 0.7092 14.4713 0 0 0 -18.2031 -45.9592 34.6226 28.0855
Si 8.44971 2.82574 15.5938 0 0 0 8.98675 -17.007 -10.2022 28.0855
Si 11.6004 2.46281 12.6861 0 0 0 -18.508 -44.9675 35.855 28.0855
Si 11.6122 4.43396 1.85269 0 0 0 -19.7112 36.1395 -9.70326 28.0855
Si 6.2402 6.6927 3.62141 0 0 0 17.142 40.4442 30.6767 28.0855
Si 7.4522 8.05822 16.8282 0 0 0 -0.389329 -56.888 5.44271 28.0855
Si 10.5523 3.82482 7.20663 0 0 0 -8.05494 -23.9227 -7.23649 28.0855
Si 5.94168 6.76499 9.22234 0 0 0 67.3055 0.859821 -44.5135 28.0855
Si 9.65603 4.86115 13.4467 0 0 0 7.23343 -7.82013 30.7184 28.0855
Si 4.87372 7.9575 15.163 0 0 0 5.26761 -51.934 2.77107 28.0855
Si 8.37126 6.67836 11.2275 0 0 0 62.1692 57.9483 -29.1237 28.0855
Si 7.38521 9.14048 1.98527 0 0 0 -41.8919 22.2376 -0.507794 28.0855
Si 2.84077 11.5829 3.74474 0 0 0 -9.85019 4.01357 -51.5527 28.0855
Si 6.3943 9.35063 7.58122 0 0 0 61.0888 -17.1756 -36.8513 28.0855
Si 2.20514 10.735 8.53052 0 0 0 51.9759 -6.03459 13.6026 28.0855
Si 5.23309 11.5314 5.93285 0 0 0 -26.5659 -39.549 19.6809 28.0855
Si 2.35572 11.5935 15.1927 0 0 0 32.7598 -17.2256 61.8117 28.0855
Si 5.74074 12.2875 12.9381 0 0 0 -23.4561 -30.5801 8.7161 28.0855
C -7.01412 11.8721 1.23299 0 0 0 -0.538073 -13.5925 -9.63304 12.0107
C 1.4607 0.48619 7.41477 0 0 0 2.21352 4.85478 -9.97797 12.0107
C -5.4952 12.1044 7.48156 0 0 0 7.95205 4.53919 0.891657 12.0107
C 10.6556 7.35262 3.52545 0 0 0 -13.0927 8.45662 1.45804 12.0107
C -0.10474 3.33733 6.39924 0 0 0 1.67268 -7.08659 -2.05314 12.0107
C -1.24197 3.52048 15.2006 0 0 0 8.00371 -11.0372 -4.77423 12.0107
C -3.79231 5.52209 15.8651 0 0 0 -7.11271 -3.89813 -0.80185 12.0107
C -4.16374 9.4635 1.61525 0 0 0 -5.76356 6.1077 2.13547 12.0107
C -7.34936 10.1826 5.62794 0 0 0 7.78895 -0.474503 -0.277875 12.0107
C -4.42022 6.69056 10.6396 0 0 0 -4.48163 0.210931 4.893 12.0107
C -5.61885 8.45733 8.32629 0 0 0 -6.23504 -1.01535 5.18556 12.0107
C -2.9032 8.21406 13.5272 0 0 0 12.1395 -1.81565 0.243351 12.0107
C -5.98895 12.0851 12.2005 0 0 0 -1.16864 -10.9993 -1.41461 12.0107
C -2.73179 12.916 2.44767 0 0 0 1.10239 -8.57703 -4.82664 12.0107
C -0.00474 13.1842 1.0644 0 0 0 5.40452 -6.75067 -1.4616 12.0107
C 8.73767 0.17078 8.68164 0 0 0 3.3897 7.8549 2.45143 12.0107
C 0.90435 2.66781 10.4436 0 0 0 7.11244 7.11034 -9.79578 12.0107
C 2.34913 4.17414 15.3887 0 0 0 -17.8095 4.77459 3.46464 12.0107
C 0.79625 1.15082 16.804 0 0 0 -0.598851 -6.12626 -10.5305 12.0107
C 6.02095 0.75017 13.1657 0 0 0 -5.61173 -2.04164 -1.96556 12.0107
C 8.33846 1.9914 11.4796 0 0 0 6.64641 6.20016 1.43999 12.0107
C 7.6919 3.70964 9.10804 0 0 0 5.99003 -1.86099 -1.37902 12.0107
C 0.15544 7.35562 4.53478 0 0 0 -11.067 -2.44726 5.73958 12.0107
C -2.43483 8.59715 6.14151 0 0 0 -0.430491 11.7692 -0.0154307 12.0107
C 3.46005 3.89688 1.52383 0 0 0 -12.3832 -4.12496 -3.41296 12.0107
C 4.49413 6.79623 0.70029 0 0 0 7.67103 11.6278 5.51675 12.0107
C 0.18813 7.68109 8.3853 0 0 0 -6.94981 10.7923 10.3988 12.0107
C -0.53849 6.6518 11.066 0 0 0 -2.8309 3.46952 -0.155939 12.0107
C -0.85448 10.7674 3.89183 0 0 0 -0.509851 -2.11131 0.767335 12.0107
C -2.73332 10.3197 16.7474 0 0 0 6.89039 -4.38058 1.13263 12.0107
C -5.50873 11.8939 16.3915 0 0 0 3.84956 4.13005 -5.36965 12.0107
C -1.01224 12.2962 13.708 0 0 0 -6.64037 -5.09381 -3.16558 12.0107
C 7.23707 2.43678 5.651 0 0 0 5.68715 0.510519 -7.233 12.0107
C 7.43424 6.11587 4.90161 0 0 0 -7.77124 1.1236 9.92931 12.0107
C 4.96472 7.82913 4.3348 0 0 0 -3.71415 4.18742 11.9929 12.0107
C 8.53424 6.29823 0.01345 0 0 0 -1.40409 -14.9322 10.9428 12.0107
C 9.9168 5.52232 6.86539 0 0 0 1.74072 3.56471 4.53021 12.0107
C 11.0816 3.62263 8.96422 0 0 0 -0.686335 1.64374 1.99411 12.0107
C 5.05129 6.12614 15.2982 0 0 0 0.911487 -2.72711 -8.25283 12.0107
C 4.90417 8.51895 13.4049 0 0 0 3.5708 -4.67266 -10.6776 12.0107
C 8.4628 8.24438 12.2072 0 0 0 5.50263 9.42492 1.06501 12.0107
C 5.95545 10.0844 1.29151 0 0 0 -7.84046 7.571 -2.11286 12.0107
C 7.4163 10.5829 8.47986 0 0 0 -1.15028 3.82316 11.765 12.0107
C 1.94638 9.85998 6.90863 0 0 0 8.35651 1.68747 0.161852 12.0107
C 1.02345 11.7489 16.4595 0 0 0 0.288188 -1.09371 8.28258 12.0107
C 6.96859 12.4705 11.5319 0 0 0 -0.970165 -9.35014 -2.7325 12.0107
C 3.40789 9.7717 9.55182 0 0 0 1.29571 -9.66695 -12.6077 12.0107
C 4.30662 11.5483 12.0185 0 0 0 0.135355 13.6458 -11.3359 12.0107
C 6.51372 11.2998 14.3261 0 0 0 2.63461 -5.28345 2.09777 12.0107
H -0.62775 1.5339 4.24602 0 0 0 0.711274 -1.80692 -3.1061 1.00794
H -0.76546 1.13489 0.18636 0 0 0 17.1932 4.15807 13.1506 1.00794
H -7.43331 12.1606 9.46693 0 0 0 5.22561 6.90359 -7.62997 1.00794
H 2.34806 0.93408 11.9981 0 0 0 -35.8525 47.1762 25.624 1.00794
H -2.70424 3.3872 9.65635 0 0 0 9.97988 -6.99249 20.4502 1.00794
H -2.5242 3.73422 7.65715 0 0 0 6.33972 0.921258 -17.5113 1.00794
H -2.55927 5.31214 13.4564 0 0 0 7.57063 -16.3947 5.30668 1.00794
H 10.6738 6.98167 16.6401 0 0 0 -5.66599 12.0042 -0.184675 1.00794
H -1.48134 8.96284 2.21038 0 0 0 -13.3237 -5.38593 -11.0328 1.00794
H -6.4531 10.1734 10.3229 0 0 0 -13.9529 27.4107 51.0435 1.00794
H -8.01585 13.1394 13.9673 0 0 0 10.4946 13.9406 -8.14831 1.00794
H 3.24532 2.38782 4.48252 0 0 0 2.22237 -2.84637 -1.08633 1.00794
H 3.83213 2.28311 11.31 0 0 0 3.26879 -8.79229 -6.28762 1.00794
H 1.31688 5.68511 6.73058 0 0 0 13.2528 -3.74041 -5.01952 1.00794
H 0.61039 9.42887 1.63423 0 0 0 5.8697 -3.53777 -1.73589 1.00794
H 8.96564 0.00667 4.55679 0 0 0 0.559085 -17.4542 5.6727 1.00794
H 2.89586 7.30216 11.253 0 0 0 -2.76859 -5.67517 -11.1895 1.00794
H 2.0933 8.12826 13.1581 0 0 0 -5.722 4.14814 6.26151 1.00794
H 0.47903 12.1693 11.4139 0 0 0 2.7518 -4.49505 -11.048 1.00794
H 4.76994 12.7619 0.72147 0 0 0 -1.52448 3.58322 0.301127 1.00794
H 9.32265 3.63643 4.41576 0 0 0 5.73258 -6.29168 -5.53278 1.00794
H 12.2171 2.55474 16.1051 0 0 0 -11.7738 10.5934 16.0498 1.00794
H 13.6936 0.95652 15.8631 0 0 0 -7.56717 -8.95631 -16.7027 1.00794
H 10.5006 1.50017 12.8112 0 0 0 6.61306 -2.0916 5.28621 1.00794
H 3.63494 6.4539 6.75121 0 0 0 -13.8267 -10.29 10.7045 1.00794
H 11.0619 5.56428 1.08798 0 0 0 50.884 -22.4982 11.6687 1.00794
H 9.55769 2.76403 6.8888 0 0 0 17.7266 14.7208 -1.55272 1.00794
H 5.49572 4.32749 7.22707 0 0 0 -33.2041 -5.38641 -23.1611 1.00794
H 6.52114 6.01219 8.10006 0 0 0 -3.88314 26.7667 0.742273 1.00794
H 5.5472 5.78814 12.8101 0 0 0 -1.84492 -2.14677 -12.7448 1.00794
H 9.30451 6.65384 10.0723 0 0 0 -5.55723 2.65033 11.886 1.00794
H 7.09342 8.53682 6.55786 0 0 0 -3.52544 8.52393 9.43285 1.00794
H 3.66493 11.1587 15.7392 0 0 0 -11.3727 -1.03435 3.6131 1.00794
H -7.9436 11.4904 0.79556 0 0 0 -7.03377 6.79132 -2.03706 1.00794
H -6.45853 11.0126 1.6237 0 0 0 4.15983 -0.810561 8.85136 1.00794
H -6.42625 12.3092 0.42272 0 0 0 -14.3597 5.58272 6.82593 1.00794
H 0.66672 0.9558 8.00833 0 0 0 -3.22282 -0.147494 7.94474 1.00794
H -8.46743 13.2668 6.68337 0 0 0 1.17999 -3.72068 -1.17871 1.00794
H 1.97113 1.26908 6.83628 0 0 0 6.49252 1.72136 -1.20321 1.00794
H -5.52014 12.3759 6.41857 0 0 0 -5.37564 4.50183 -5.22131 1.00794
H -5.60057 11.0195 7.56094 0 0 0 10.5599 16.3586 -0.226792 1.00794
H -4.50866 12.3539 7.87644 0 0 0 -7.01585 -0.0866042 8.33322 1.00794
H 9.82363 6.76686 3.93467 0 0 0 5.23703 -1.167 -4.44728 1.00794
H 10.4559 7.4984 2.45689 0 0 0 2.51637 -3.38869 -5.64673 1.00794
H -5.97647 8.33967 4.00544 0 0 0 5.27573 2.9049 1.96499 1.00794
H 0.05595 3.68864 5.37118 0 0 0 0.623026 7.91515 -3.18234 1.00794
H -0.50971 2.31893 6.3465 0 0 0 -5.63491 -3.90438 6.14861 1.00794
H 0.86901 3.27851 6.89579 0 0 0 -1.43669 1.52114 8.86218 1.00794
H -0.60881 2.67719 14.9106 0 0 0 -29.0945 18.9525 -2.80355 1.00794
H -2.23495 3.11757 15.4185 0 0 0 21.8322 -18.9561 0.266597 1.00794
H -0.8479 3.96774 16.1201 0 0 0 4.33832 7.11675 -0.713754 1.00794
H -3.44647 4.57679 15.45 0 0 0 -31.6178 26.0647 9.06567 1.00794
H -4.0156 6.19426 15.0303 0 0 0 5.04032 2.31909 -1.39776 1.00794
H -4.72269 5.32194 16.4055 0 0 0 1.04719 -9.5618 -1.54639 1.00794
H -5.03598 8.96028 1.17572 0 0 0 -0.714016 -5.5953 -4.72362 1.00794
H -3.89238 10.2909 0.95363 0 0 0 5.33502 -4.24073 4.06513 1.00794
H -4.47029 9.89449 2.57941 0 0 0 1.13488 1.52552 6.88602 1.00794
H -6.32791 10.2875 5.23397 0 0 0 5.05441 0.0234151 -2.94036 1.00794
H 9.00336 9.11649 5.64408 0 0 0 0.555989 -5.28126 -1.82434 1.00794
H -7.34365 10.5499 6.65448 0 0 0 -17.6556 -0.935751 -8.74819 1.00794
H -3.47701 6.28351 11.0269 0 0 0 -3.93928 -0.677207 -2.13162 1.00794
H 11.5393 5.84299 10.3886 0 0 0 -3.2395 3.31165 2.36019 1.00794
H -4.89951 7.2791 11.4278 0 0 0 -4.57771 -4.5831 -2.08196 1.00794
H 10.1069 7.82238 8.47892 0 0 0 -2.49239 3.75478 2.48565 1.00794
H -5.46732 8.56137 7.24274 0 0 0 3.0956 1.79097 -5.23738 1.00794
H -5.85502 9.44275 8.7351 0 0 0 16.806 -34.3962 -34.9016 1.00794
H -3.15386 7.23626 13.1026 0 0 0 -8.02069 8.33249 -2.61962 1.00794
H -2.42547 8.06796 14.4974 0 0 0 -27.1468 12.9925 -7.80695 1.00794
H -2.18539 8.70567 12.8586 0 0 0 2.66432 5.07196 -4.97232 1.00794
H -6.0235 12.973 11.5684 0 0 0 42.2588 -49.6912 -17.0875 1.00794
H -5.35146 12.2685 13.0682 0 0 0 -1.56107 -4.1106 -0.322027 1.00794
H -7.00164 11.8468 12.5486 0 0 0 0.633428 -14.3072 -1.49949 1.00794
H -2.58159 11.9417 1.96395 0 0 0 -1.67028 -1.33202 -2.18423 1.00794
H -3.72398 13.2758 2.1525 0 0 0 2.08167 -1.43652 -7.84973 1.00794
H -2.7433 12.76 3.52816 0 0 0 8.71105 4.33488 6.25125 1.00794
H -0.36008 12.5509 0.24554 0 0 0 -2.33125 0.493498 -0.783261 1.00794
H 0.53576 12.561 1.78759 0 0 0 -2.01016 -1.86973 6.16871 1.00794
H 10.1712 0.44695 0.65434 0 0 0 -12.8725 6.15061 0.324072 1.00794
H 9.06798 1.06064 8.12647 0 0 0 1.88363 -7.57956 -1.43929 1.00794
H 0.17761 13.155 9.12004 0 0 0 3.35238 -1.08331 -0.0912086 1.00794
H 8.0577 0.48193 9.47926 0 0 0 -1.66099 -15.0811 -10.5027 1.00794
H 0.46536 3.15421 9.56716 0 0 0 1.88553 -12.8688 1.46997 1.00794
H 1.22057 1.65645 10.1616 0 0 0 -4.39993 -3.34863 -0.874965 1.00794
H 1.79098 3.24051 10.7366 0 0 0 -3.54864 3.85959 7.81979 1.00794
H 2.70665 5.01462 15.9827 0 0 0 -2.54194 -9.96157 -0.681292 1.00794
H 1.58402 3.66426 15.9835 0 0 0 4.89352 10.7506 3.24893 1.00794
H 1.85671 4.58936 14.4979 0 0 0 1.7477 -1.61269 -6.40105 1.00794
H 0.74452 1.83797 15.9569 0 0 0 13.5898 -24.098 19.9333 1.00794
H 0.60906 0.14041 16.4115 0 0 0 -2.21026 -2.35035 -1.80666 1.00794
H 1.82041 1.17263 17.1997 0 0 0 2.94085 -0.103156 5.13017 1.00794
H 5.01977 0.63619 13.5954 0 0 0 1.89515 2.46549 4.61313 1.00794
H 6.05113 0.19442 12.2199 0 0 0 2.7293 -7.97731 -3.54281 1.00794
H 6.15015 1.81323 12.9518 0 0 0 3.23091 -3.12823 14.78 1.00794
H 9.28145 2.17335 10.9488 0 0 0 1.73494 1.93194 -6.24077 1.00794
H 8.22922 0.90698 11.5879 0 0 0 -3.59256 -5.59006 -0.895675 1.00794
H 8.41396 2.42242 12.4824 0 0 0 -5.37648 1.10771 -1.67396 1.00794
H 6.93513 4.11851 8.43535 0 0 0 30.5176 -25.7454 31.8274 1.00794
H 8.31492 3.01134 8.53706 0 0 0 -15.7388 0.217124 14.3676 1.00794
H 8.3327 4.5318 9.44369 0 0 0 -5.70744 -1.22939 1.61361 1.00794
H -0.33451 6.70598 5.26468 0 0 0 64.8477 34.0734 -50.4973 1.00794
H -0.62043 7.74165 3.8622 0 0 0 3.39394 -11.0386 -3.75137 1.00794
H 0.62588 8.1971 5.06203 0 0 0 7.33601 -4.25773 2.19144 1.00794
H -2.25834 8.71266 5.06831 0 0 0 -2.45769 -1.56897 -1.24311 1.00794
H -1.56231 8.97179 6.68366 0 0 0 5.02755 -0.540345 -0.926026 1.00794
H -3.2852 9.24274 6.40792 0 0 0 -4.45248 2.69448 -0.272125 1.00794
H 3.37141 2.97702 0.93023 0 0 0 1.72274 2.29757 -1.12506 1.00794
H 3.05266 4.71732 0.93233 0 0 0 -3.54443 2.33924 -2.64401 1.00794
H 2.8133 3.77304 2.40258 0 0 0 -1.23145 1.51064 3.9633 1.00794
H 4.7315 5.83405 0.24776 0 0 0 -24.1623 18.5579 14.6588 1.00794
H 3.97494 6.62481 1.64261 0 0 0 -0.0194603 1.76257 -0.193026 1.00794
H 5.44165 7.2989 0.91649 0 0 0 -8.83551 -0.0356178 -13.0696 1.00794
H 0.43393 7.52354 7.33388 0 0 0 -1.19091 -5.80849 -1.45605 1.00794
H 0.87527 8.41958 8.80859 0 0 0 -3.34653 -18.9366 6.78428 1.00794
H -0.81708 8.11527 8.45997 0 0 0 1.34203 -3.17128 4.33431 1.00794
H -1.42397 6.03773 11.2576 0 0 0 1.36831 0.211652 -8.56198 1.00794
H -0.8503 7.70213 11.0173 0 0 0 -3.72164 5.07027 -0.489363 1.00794
H 0.14143 6.53669 11.9164 0 0 0 13.2848 1.32475 -6.2527 1.00794
H -0.68155 10.9252 2.82193 0 0 0 4.59018 6.61008 -2.35892 1.00794
H -1.93473 10.7164 4.06743 0 0 0 -6.43916 2.6309 4.44599 1.00794
H -0.41734 9.80148 4.16407 0 0 0 1.44234 17.7999 0.564053 1.00794
H -1.75995 10.2641 16.2382 0 0 0 0.653904 -1.80858 -2.20875 1.00794
H -3.14069 9.30414 16.7657 0 0 0 -1.99168 15.6795 -20.7457 1.00794
H -1.47772 10.6368 0.42966 0 0 0 -3.45622 6.03974 2.67576 1.00794
H -6.1766 11.0246 16.4408 0 0 0 0.333802 -10.7934 -4.11141 1.00794
H -5.94538 12.6274 15.6958 0 0 0 -2.79482 2.43618 -3.73634 1.00794
H -4.38501 12.3681 0.02788 0 0 0 13.9772 3.12713 3.16006 1.00794
H -1.5223 11.7122 12.9312 0 0 0 -10.8886 2.36894 6.99472 1.00794
H -0.71521 11.6037 14.5037 0 0 0 -4.46191 -2.41136 0.555263 1.00794
H -0.10465 12.7455 13.2902 0 0 0 0.482064 12.6652 9.84911 1.00794
H 6.95193 3.02498 4.77315 0 0 0 -4.44444 5.01918 -2.24449 1.00794
H 8.18433 1.93595 5.43673 0 0 0 -12.5286 -12.204 14.1068 1.00794
H 7.40206 3.11353 6.49472 0 0 0 -4.93328 1.75659 -1.9293 1.00794
H 8.13528 5.38981 4.469 0 0 0 -9.81228 0.906445 -11.0406 1.00794
H 6.90232 5.60852 5.71915 0 0 0 -6.0295 -1.45986 1.76584 1.00794
H 7.9999 6.94697 5.33788 0 0 0 -1.84706 8.78388 -3.52468 1.00794
H 4.56317 7.46779 5.28757 0 0 0 12.4591 4.73057 -7.90081 1.00794
H 4.12314 8.01568 3.66309 0 0 0 6.97102 -1.75112 -4.58106 1.00794
H 5.45618 8.79149 4.53322 0 0 0 1.45838 3.82779 -0.643741 1.00794
H 7.62794 5.60412 16.5385 0 0 0 5.07837 12.4624 -9.17772 1.00794
H 7.62449 5.99631 0.54008 0 0 0 -4.98116 7.12522 4.66768 1.00794
H 9.35946 6.17637 0.726 0 0 0 -47.615 17.8921 -8.8137 1.00794
H 8.9822 5.72881 7.40163 0 0 0 -4.77931 -1.40902 5.89703 1.00794
H 9.74696 5.66443 5.79709 0 0 0 15.265 -8.43781 4.17985 1.00794
H 10.6796 6.24077 7.17393 0 0 0 1.55751 -9.11973 -4.30696 1.00794
H 10.3832 4.06801 9.68222 0 0 0 -1.15359 1.44846 0.0745787 1.00794
H 12.061 4.09325 9.10818 0 0 0 -8.33758 10.7077 -9.45009 1.00794
H 11.1645 2.55718 9.20634 0 0 0 -11.2749 -5.96975 -11.4187 1.00794
H 5.04865 5.75883 16.3261 0 0 0 25.7651 -0.589561 -26.2406 1.00794
H 5.99607 5.80989 14.8403 0 0 0 10.182 1.79211 7.56184 1.00794
H 4.24077 5.64759 14.7476 0 0 0 3.85312 29.4093 1.57388 1.00794
H 4.20794 7.9154 12.8088 0 0 0 6.26167 -2.38255 3.65727 1.00794
H 5.89844 8.42366 12.9553 0 0 0 -5.3386 -1.03231 0.812447 1.00794
H 4.58544 9.56106 13.3307 0 0 0 0.21807 -15.3985 18.293 1.00794
H 9.5045 8.51795 12.4116 0 0 0 -8.1883 -9.49814 0.315634 1.00794
H 7.94184 8.15744 13.1698 0 0 0 5.08924 -6.71108 4.37717 1.00794
H 8.00183 9.06211 11.6338 0 0 0 -2.37618 3.45722 -4.41406 1.00794
H 5.12317 10.1106 2.007 0 0 0 -2.13968 -3.18278 5.53629 1.00794
H 5.58641 9.72109 0.32941 0 0 0 5.56603 -3.30918 -1.08983 1.00794
H 6.28931 11.1218 1.14004 0 0 0 2.50245 3.35033 -0.77432 1.00794
H 8.3415 10.14 8.87121 0 0 0 1.51093 -10.4848 -1.28456 1.00794
H 6.83723 10.952 9.33619 0 0 0 -6.39967 -3.95522 -6.96794 1.00794
H 7.66919 11.4529 7.86773 0 0 0 -12.7599 -6.56384 -7.80972 1.00794
H 2.30839 8.82885 6.9998 0 0 0 4.54653 -5.97811 -2.29948 1.00794
H 2.52349 10.3379 6.11713 0 0 0 0.378431 -7.3772 12.824 1.00794
H 0.89064 9.84751 6.62152 0 0 0 -5.52647 -0.879624 2.96695 1.00794
H 0.35508 10.8804 16.4223 0 0 0 0.568226 -5.77762 -1.55471 1.00794
H 0.44162 12.6589 16.2839 0 0 0 1.18265 5.7497 -9.2542 1.00794
H 2.50419 11.7923 0.12336 0 0 0 2.4496 -6.64653 -1.20249 1.00794
H 6.45995 12.8349 10.6302 0 0 0 -5.15435 3.68719 -4.41102 1.00794
H 7.31557 11.4438 11.3308 0 0 0 4.09269 -0.508864 3.89624 1.00794
H -8.73365 13.0697 11.6566 0 0 0 -37.9893 -37.9728 -38.7282 1.00794
H 4.42014 10.1798 9.53988 0 0 0 -0.177509 9.69209 -17.9019 1.00794
H 3.46532 8.75783 9.14043 0 0 0 -5.27559 -4.45819 -1.61818 1.00794
H 3.0736 9.69559 10.591 0 0 0 -15.3516 -6.81702 0.517676 1.00794
H 4.65977 10.6724 11.4687 0 0 0 21.2519 8.50787 22.8779 1.00794
H 3.97854 12.2917 11.2738 0 0 0 -3.4726 2.86027 -2.62876 1.00794
H 3.43294 11.2589 12.6081 0 0 0 9.40727 9.31727 -4.74158 1.00794
H 7.059 10.4129 13.9782 0 0 0 1.96477 -3.29626 -9.29312 1.00794
H 5.77246 10.9711 15.065 0 0 0 -5.58389 3.22658 0.269174 1.00794
H 7.23603 11.9378 14.8551 0 0 0 -7.70207 -6.75797 7.94309 1.00794
O 0.8573 0.66292 2.08447 0 0 0 -46.8125 1.45442 32.7185 15.9994
O -1.63651 1.7454 11.2256 0 0 0 7.97874 -72.3417 34.4268 15.9994
O 0.35826 1.81653 13.1301 0 0 0 -22.2737 -5.25508 36.7033 15.9994
O -1.34742 3.63357 2.97229 0 0 0 -60.1331 62.9661 36.0416 15.9994
O 0.50937 3.12054 1.11721 0 0 0 80.277 25.0967 -42.4796 15.9994
O -1.00925 5.23892 0.80425 0 0 0 -35.9727 -23.8197 -9.95785 15.9994
O -4.06269 6.42965 5.44046 0 0 0 -62.6479 -32.4422 50.5918 15.9994
O -1.66142 5.74852 6.38087 0 0 0 -7.96482 -32.0952 -5.6731 15.9994
O -0.75584 4.02048 12.395 0 0 0 10.497 56.5444 -68.6886 15.9994
O -3.08138 7.30259 3.13766 0 0 0 60.5011 -3.21326 40.5869 15.9994
O -2.48399 7.41012 0.51185 0 0 0 -73.0163 6.35854 -41.1071 15.9994
O -7.76872 12.4584 3.95882 0 0 0 41.7947 34.7058 56.54 15.9994
O -3.45903 6.65419 8.02459 0 0 0 -2.38487 -46.9325 30.5471 15.9994
O -5.51106 8.59224 14.7077 0 0 0 -2.49556 59.9763 38.6993 15.9994
O -5.04269 9.4234 12.2209 0 0 0 -5.40672 -42.9317 -26.9385 15.9994
O 3.46151 0.6079 2.70111 0 0 0 39.5891 -3.54913 -80.9991 15.9994
O 7.26294 1.47547 0.63044 0 0 0 -36.0525 -75.6188 -22.8606 15.9994
O 3.48088 0.64289 9.48087 0 0 0 -32.664 -47.0383 39.7654 15.9994
O 5.12542 0.63851 4.74556 0 0 0 6.02725 -40.9325 -8.78178 15.9994
O -2.75895 13.3049 6.71332 0 0 0 -36.4778 -52.7912 -7.85013 15.9994
O 2.86117 1.64839 14.3477 0 0 0 17.5433 -49.5136 49.7979 15.9994
O 4.6479 2.48913 16.0657 0 0 0 -23.7635 -83.8805 13.6143 15.9994
O 5.88912 1.66692 9.93274 0 0 0 26.2897 -31.0502 -8.4214 15.9994
O 5.32181 2.59752 3.00409 0 0 0 70.5807 -8.91737 -4.11401 15.9994
O 6.31059 3.92265 0.86923 0 0 0 26.3647 61.2618 -4.24474 15.9994
O 0.77685 5.21151 2.71327 0 0 0 49.5727 -36.9985 0.719091 15.9994
O 3.92237 3.25408 8.97137 0 0 0 -33.5483 37.2038 25.5854 15.9994
O 4.81664 1.8658 6.98911 0 0 0 -21.0347 -62.3804 26.3548 15.9994
O -0.58887 4.94545 8.73478 0 0 0 -31.8548 -37.5136 53.3723 15.9994
O 2.565 5.78338 4.52957 0 0 0 54.3067 -15.2426 -32.3619 15.9994
O 3.16289 3.97066 6.47579 0 0 0 -35.3142 -48.4053 -41.3417 15.9994
O 4.57297 3.56296 13.6387 0 0 0 64.4353 -49.4768 11.2121 15.9994
O 6.05437 3.79693 11.4566 0 0 0 54.0574 46.9552 -16.4082 15.9994
O -0.21306 5.97151 14.2125 0 0 0 54.1226 -19.9146 -55.434 15.9994
O 1.22354 7.03721 16.2185 0 0 0 22.3639 -97.0523 18.9325 15.9994
O -1.40087 7.12146 16.3168 0 0 0 -20.1984 74.2103 30.1378 15.9994
O 1.81799 5.67127 9.65191 0 0 0 -15.5427 -60.5176 -50.8183 15.9994
O 3.53732 4.87648 11.59 0 0 0 -47.4976 -45.6595 7.15924 15.9994
O 2.09764 7.54307 2.53651 0 0 0 45.0185 -41.7629 -27.895 15.9994
O 2.8541 9.07819 0.51887 0 0 0 19.8499 64.9163 -29.2151 15.9994
O -2.97169 8.8882 9.3973 0 0 0 63.4882 -57.1061 1.70243 15.9994
O -2.35088 11.2381 8.27514 0 0 0 -21.9398 -45.8006 -65.0377 15.9994
O -4.07521 11.1143 10.322 0 0 0 -12.4114 86.3704 -10.6438 15.9994
O -0.49212 11.8554 6.47659 0 0 0 49.7872 -46.8813 28.3647 15.9994
O 0.009 8.61835 14.4806 0 0 0 -59.9267 50.3694 6.14779 15.9994
O -4.00272 10.7486 14.2827 0 0 0 24.2065 58.9227 -39.4224 15.9994
O -3.00894 12.8827 15.6187 0 0 0 0.392205 40.0319 49.2687 15.9994
O -1.50487 10.6815 10.7223 0 0 0 -32.4617 13.719 76.1501 15.9994
O 0.53491 9.66659 11.9632 0 0 0 -7.82949 -82.527 -49.8875 15.9994
O 14.3276 1.21639 2.38473 0 0 0 62.8644 8.85789 -41.0295 15.9994
O 8.63947 1.66039 2.97554 0 0 0 -85.6253 -13.9954 51.0986 15.9994
O 12.3716 1.03686 0.59516 0 0 0 -62.0037 -39.4952 -9.75822 15.9994
O 13.5284 0.94598 9.05573 0 0 0 54.0697 -12.4527 7.54232 15.9994
O 13.6327 2.33205 4.69565 0 0 0 28.0698 60.8857 35.0787 15.9994
O 11.0297 1.76865 4.35231 0 0 0 -8.6607 -80.9306 -17.4317 15.9994
O 12.3312 0.94992 6.59962 0 0 0 -80.9521 -36.0017 -5.73921 15.9994
O 8.1926 1.34878 15.0013 0 0 0 59.693 -54.7797 -13.2141 15.9994
O 9.74379 2.7642 16.5842 0 0 0 -27.0351 36.1251 52.7817 15.9994
O 7.14108 3.37372 16.3989 0 0 0 -6.69764 68.4458 11.2052 15.9994
O 12.3377 2.19678 11.237 0 0 0 -66.7186 -23.3281 -58.8219 15.9994
O 12.7193 2.12534 13.8387 0 0 0 24.5696 50.9912 31.1861 15.9994
O 10.4592 3.33817 2.19842 0 0 0 -41.5229 -18.2845 -52.1901 15.9994
O 12.7036 3.66631 0.90802 0 0 0 53.1503 14.3475 8.68461 15.9994
O 12.2737 4.98091 3.23445 0 0 0 29.5283 -35.3867 43.468 15.9994
O 5.61641 5.29574 2.98867 0 0 0 -52.3075 12.5714 46.4839 15.9994
O 8.7192 8.25369 15.7712 0 0 0 -17.2193 56.8339 -32.2913 15.9994
O 11.8427 3.5201 6.19949 0 0 0 17.4216 61.8826 7.88462 15.9994
O 4.42093 6.26209 9.50322 0 0 0 -36.8268 -40.4004 -76.6836 15.9994
O 8.74106 3.88361 14.38 0 0 0 -75.0655 6.11309 -32.5098 15.9994
O 10.978 3.99865 12.9253 0 0 0 74.6986 59.9084 -31.6457 15.9994
O 10.0002 6.20664 14.3205 0 0 0 34.9425 14.5671 -14.5462 15.9994
O 6.12143 8.59678 16.0345 0 0 0 -21.2858 60.357 -2.1444 15.9994
O 3.4276 8.49036 15.8058 0 0 0 -6.37094 44.4566 -30.582 15.9994
O 6.8517 6.58448 10.5739 0 0 0 -41.934 -34.6736 72.7832 15.9994
O 8.7712 5.35684 12.1547 0 0 0 -62.2257 -62.3353 -33.2159 15.9994
O 7.05016 7.60543 2.48439 0 0 0 26.2733 -63.3954 -33.1933 15.9994
O 8.59656 8.98211 0.85451 0 0 0 52.3987 31.2022 4.08175 15.9994
O 7.87271 10.0484 3.26102 0 0 0 28.0348 -28.4666 5.40506 15.9994
O 2.63319 10.1388 2.9983 0 0 0 43.8558 -49.9067 45.659 15.9994
O 3.06509 12.7173 2.60053 0 0 0 -74.7016 37.7647 -8.46356 15.9994
O 1.56324 11.982 4.65658 0 0 0 9.34244 25.1498 88.9595 15.9994
O 5.86382 8.3187 8.73995 0 0 0 -50.7508 47.2593 49.5766 15.9994
O 2.65105 12.3192 8.28102 0 0 0 -69.1054 18.427 35.4338 15.9994
O 0.79832 10.7192 9.41765 0 0 0 -44.9499 -26.1743 -71.0322 15.9994
O 6.71677 11.5875 5.24294 0 0 0 24.7669 61.6499 4.63792 15.9994
O 4.14177 11.4952 4.72334 0 0 0 34.2095 -3.88192 -39.7328 15.9994
O 5.14918 10.1477 6.82012 0 0 0 -48.9846 -34.0045 12.0384 15.9994
O 4.94174 12.7963 6.95686 0 0 0 70.5181 46.9092 26.622 15.9994
O 1.86701 10.5242 14.0423 0 0 0 16.1633 41.1081 -40.5443 15.9994
O 2.62124 13.0516 14.4453 0 0 0 -51.989 5.98644 -35.1495 15.9994
O 14.6052 0.22668 13.6554 0 0 0 73.0234 44.9848 -43.858 15.9994
386
Timestep=100 Time=100.000000 pbc="T T T" Lattice="16.6078 0 0 -9.45048 13.4467 0 -1.07167 0.003425 17.3502" Potential_energy=234.41236609615697 Temperature=0 Stress="20280.32598631037 -1536.7949571388633 832.7763204572937 -1536.7949571388633 19733.555313556863 5714.397125365468 832.7763204572937 5714.397125365468 13414.087036239176" Properties=species:S:1:pos:R:3:vel:R:3:forces:R:3:mass:R:1
Si -7.04311 12.7352 2.24704 0 0 0 -0.609603 0.156156 0.411916 28.0855
Si 14.4562 1.94337 3.40806 0 0 0 0.585162 0.548126 0.143979 28.0855
Si 0.74458 1.45818 1.1568 0 0 0 -0.581154 -0.0132191 -0.48189 28.0855
Si -7.12381 13.11 8.73069 0 0 0 -0.458537 0.447841 0.216 28.0855
Si 13.6348 2.05662 10.2391 0 0 0 0.884013 0.2477 -1.37291 28.0855
Si 1.66517 1.09124 13.4817 0 0 0 0.386083 0.684425 0.521498 28.0855
Si -0.67976 2.61429 12.12 0 0 0 -1.04455 0.161362 -1.21825 28.0855
Si -0.234079 4.04656 2.14274 0 0 0 0.0181867 2.47278 -1.13458 28.0855
Si -4.42325 6.63153 4.05407 0 0 0 0.590076 0.216872 0.277574 28.0855
Si -1.09017 6.30206 0.288467 0 0 0 -0.0679437 -0.0818711 -1.12958 28.0855
Si -1.28545 4.49254 7.05365 0 0 0 1.28866 0.934176 1.49584 28.0855
Si -2.97831 6.79897 6.60662 0 0 0 0.0596682 -0.104181 -0.203456 28.0855
Si -1.58416 4.70821 14.1788 0 0 0 -0.133884 -0.240505 -0.25416 28.0855
Si 10.1561 7.77116 15.0419 0 0 0 1.23016 1.46884 0.308795 28.0855
Si -2.6886 8.20694 2.15918 0 0 0 0.410313 0.765916 -0.299081 28.0855
Si 8.42302 10.835 4.41504 0 0 0 -2.11012 1.62626 1.26946 28.0855
Si -3.88637 7.59796 9.34416 0 0 0 -0.00286502 -0.286628 -0.98473 28.0855
Si -4.18688 9.46733 13.7168 0 0 0 1.49375 0.36378 0.127065 28.0855
Si -5.1571 10.7784 11.1549 0 0 0 -0.297328 -1.04323 -0.20217 28.0855
Si 8.1189 0.893967 1.59764 0 0 0 -1.27544 -1.47023 -3.2701 28.0855
Si 4.31581 1.35535 3.37324 0 0 0 -0.437417 0.149238 -0.366479 28.0855
Si 5.8552 3.01188 16.975 0 0 0 1.04153 1.82043 -3.52979 28.0855
Si -1.60363 12.2753 7.46477 0 0 0 0.247101 0.812784 -0.914825 28.0855
Si 3.82278 2.04598 9.85297 0 0 0 1.78447 0.0330097 0.501045 28.0855
Si 5.85883 0.624093 5.85948 0 0 0 0.73147 0.349892 -0.679639 28.0855
Si 7.67494 0.359938 14.4321 0 0 0 1.84235 1.63951 -0.923054 28.0855
Si 3.50997 3.04061 14.7743 0 0 0 0.665565 -0.0450923 -1.03472 28.0855
Si 6.59033 3.02332 10.4853 0 0 0 1.12424 -0.0808182 -0.146968 28.0855
Si 5.51956 3.87418 2.07478 0 0 0 0.629961 0.278036 -0.166947 28.0855
Si 1.29117 6.24352 3.58462 0 0 0 -0.106495 0.911985 0.049321 28.0855
Si 2.23329 8.14861 17.0788 0 0 0 -0.45308 -0.0340899 0.378682 28.0855
Si 4.21844 2.81706 7.07024 0 0 0 -0.11804 -0.78529 -0.156177 28.0855
Si 0.349145 5.99936 9.20353 0 0 0 0.193742 0.065028 -0.254009 28.0855
Si 3.17319 4.99803 5.56397 0 0 0 -0.473954 -0.624763 -0.485737 28.0855
Si 4.73416 4.58568 12.3978 0 0 0 0.278335 0.752492 -0.689667 28.0855
Si -0.0956811 7.18426 15.4475 0 0 0 1.4017 0.203548 -1.18257 28.0855
Si 3.21087 5.78644 10.1126 0 0 0 0.791375 2.40263 -0.528552 28.0855
Si 1.66265 8.94053 2.09066 0 0 0 -0.0966125 -0.460654 -2.06982 28.0855
Si -2.49626 10.3645 9.75812 0 0 0 2.07957 -0.569018 -0.812661 28.0855
Si 0.258041 12.2598 4.98231 0 0 0 -0.592956 0.570624 -1.1595 28.0855
Si 1.16682 9.05167 13.3532 0 0 0 -0.126225 -0.300841 -1.88716 28.0855
Si -3.17225 11.5065 15.6702 0 0 0 0.737999 0.339109 -0.317543 28.0855
Si 0.255442 10.5811 10.894 0 0 0 -0.141752 0.0467475 0.101845 28.0855
Si 3.75494 13.4673 1.45127 0 0 0 -1.08232 0.224887 -0.92498 28.0855
Si 9.76546 2.85631 3.44209 0 0 0 -1.45842 0.137493 0.671711 28.0855
Si 10.9786 2.43489 17.2735 0 0 0 -1.32491 -0.881566 -0.58628 28.0855
Si 13.1756 0.148721 7.59582 0 0 0 0.679408 0.211033 -0.0656624 28.0855
Si 12.1681 2.16989 5.35955 0 0 0 -0.996311 -0.713875 -0.812829 28.0855
Si 13.064 0.797262 14.2797 0 0 0 0.0229697 -0.261389 -0.360823 28.0855
Si 8.60631 3.07377 15.58 0 0 0 5.2214 3.72183 -2.73544 28.0855
Si 11.4934 2.63762 12.4907 0 0 0 1.07648 -2.52144 -1.72837 28.0855
Si 11.7137 4.55687 1.97725 0 0 0 0.552767 -0.939801 -1.28629 28.0855
Si 6.2711 6.56052 3.55894 0 0 0 -0.817252 -0.325952 -0.342056 28.0855
Si 7.51691 8.17018 16.6761 0 0 0 0.278674 -0.283491 0.42502 28.0855
Si 10.4283 3.74362 7.13435 0 0 0 -0.548431 -0.584011 0.517906 28.0855
Si 5.88666 6.76794 9.14939 0 0 0 -0.040146 0.105054 -0.469431 28.0855