units           real
atom_style      full
boundary        p p p

pair_style      lj/cut 5.000
bond_style      harmonic
angle_style     hybrid cosine/periodic fourier
dihedral_style  harmonic

pair_modify     tail yes mix arithmetic
special_bonds   lj/coul 0.0 0.0 1.0
dielectric      1.0
box tilt        large

The 'box' command has been removed and will be ignored

read_data       ./dat/data.333U-50C-14-vasp
Reading data file ...
  triclinic box = (0 0 0) to (16.859739 12.609509 18.640259) with tilt (-8.851026 0.45889 0.205421)
WARNING: Triclinic box skew is large. LAMMPS will run inefficiently. (src/domain.cpp:221)
  1 by 1 by 1 MPI processor grid
  reading atoms ...
  371 atoms
  scanning bonds ...
  4 = max bonds/atom
  scanning angles ...
  6 = max angles/atom
  scanning dihedrals ...
  30 = max dihedrals/atom
  triclinic box = (0 0 0) to (16.859739 12.609509 18.640259) with tilt (-8.851026 0.45889 0.205421)
WARNING: Triclinic box skew is large. LAMMPS will run inefficiently. (src/domain.cpp:221)
  1 by 1 by 1 MPI processor grid
  reading bonds ...
  396 bonds
  reading angles ...
  751 angles
  reading dihedrals ...
  942 dihedrals
Finding 1-2 1-3 1-4 neighbors ...
  special bond factors lj:    0        0        1       
  special bond factors coul:  0        0        1       
     4 = max # of 1-2 neighbors
    10 = max # of 1-3 neighbors
    14 = max # of special neighbors
  special bonds CPU = 0.000 seconds
  read_data CPU = 0.008 seconds

#### Atom Groupings ####
group           fram     id   1:371
371 atoms in group fram
#### END Atom Groupings ####

compute am all property/atom mass
dump        atom_pos all extxyz 100 ./output/333U-50C-14-vasp.lammpstrj
dump_modify atom_pos element Si H C O mass yes
thermo          1000
thermo_style    custom step temp pe ke etotal press vol density

variable up equal 2e-2
variable cfac equal 1.0e-4
variable cunits string GPa

# Define minimization parameters
variable etol equal 0.0
variable ftol equal 1.0e-10
variable maxiter equal 100000
variable maxeval equal 100000
variable dmax equal 1.0e-2

variable temp equal 300.0
variable thermal_damp index 100.0
variable pressure_damp index 500.0

fix relax all box/relax aniso 0.0 vmax 0.001
unfix relax
minimize ${etol} ${ftol} ${maxiter} ${maxeval}
minimize 0 ${ftol} ${maxiter} ${maxeval}
minimize 0 1e-10 ${maxiter} ${maxeval}
minimize 0 1e-10 100000 ${maxeval}
minimize 0 1e-10 100000 100000
Generated 6 of 6 mixed pair_coeff terms from arithmetic mixing rule
Neighbor list info ...
  update: every = 1 steps, delay = 0 steps, check = yes
  max neighbors/atom: 2000, page size: 100000
  master list distance cutoff = 7
  ghost atom cutoff = 7
  binsize = 3.5, bins = 8 4 6
  1 neighbor lists, perpetual/occasional/extra = 1 0 0
  (1) pair lj/cut, perpetual
      attributes: half, newton on
      pair build: half/bin/newton/tri
      stencil: half/bin/3d/tri
      bin: standard
WARNING: Inconsistent image flags
For more information see https://docs.lammps.org/err0027 (src/domain.cpp:1052)
Per MPI rank memory allocation (min/avg/max) = 19.51 | 19.51 | 19.51 Mbytes
   Step          Temp          PotEng         KinEng         TotEng         Press          Volume        Density    
         0   0              1434.6153      0              1434.6153      96600.578      3962.7892      1.6800742    
       113   0              105.96069      0              105.96069      15168.577      3962.7892      1.6800742    
Loop time of 0.0666811 on 1 procs for 113 steps with 371 atoms

100.0% CPU use with 1 MPI tasks x 1 OpenMP threads

Minimization stats:
  Stopping criterion = linesearch alpha is zero
  Energy initial, next-to-last, final = 
      1434.61534669576   105.960692854437   105.960692854437
  Force two-norm initial, final = 878.76511 18.122884
  Force max component initial, final = 95.766221 4.2792975
  Final line search alpha, max atom move = 2.8585093e-11 1.2232412e-10
  Iterations, force evaluations = 113 278

MPI task timing breakdown:
Section |  min time  |  avg time  |  max time  |%varavg| %total
---------------------------------------------------------------
Pair    | 0.043346   | 0.043346   | 0.043346   |   0.0 | 65.00
Bond    | 0.010713   | 0.010713   | 0.010713   |   0.0 | 16.07
Neigh   | 0.0089506  | 0.0089506  | 0.0089506  |   0.0 | 13.42
Comm    | 0.001501   | 0.001501   | 0.001501   |   0.0 |  2.25
Output  | 0.00052493 | 0.00052493 | 0.00052493 |   0.0 |  0.79
Modify  | 0          | 0          | 0          |   0.0 |  0.00
Other   |            | 0.001646   |            |       |  2.47

Nlocal:            371 ave         371 max         371 min
Histogram: 1 0 0 0 0 0 0 0 0 0
Nghost:           2415 ave        2415 max        2415 min
Histogram: 1 0 0 0 0 0 0 0 0 0
Neighs:          23636 ave       23636 max       23636 min
Histogram: 1 0 0 0 0 0 0 0 0 0

Total # of neighbors = 23636
Ave neighs/atom = 63.708895
Ave special neighs/atom = 6.1832884
Neighbor list builds = 4
Dangerous builds = 0

# Generating the full routine as described in the paper for UFF
# fix nvt_relax   all nvt temp 300 300 ${thermal_damp}
# run 100000      # 100 picoseconds
# unfix           nvt_relax
#
# fix npt_relax   all npt temp 300 300 ${thermal_damp} iso 0 0 ${pressure_damp}
# run 100000      # 100 picoseconds
# unfix           npt_relax
#
# fix nvt_heat    all nvt temp 300 1000 ${thermal_damp}
# run 100000      # 100 picoseconds
# unfix           nvt_heat
#
# fix npt_heat    all npt temp 1000 1000 ${thermal_damp} iso 0 0 ${pressure_damp}
# run 100000      # 100 picoseconds
# unfix           npt_heat
#
# fix cooling_npt all npt temp 1000 300 ${thermal_damp} iso 0 0 ${pressure_damp}
# run 700000      # 700 picoseconds
# unfix           cooling_npt
#
# fix npt_final   all npt temp 300 300 ${thermal_damp} iso 0 0 100
# run 100000      # 100 picoseconds
# unfix           npt_final

# density computation
# variable rho equal density
# fix integrate  all npt temp ${temp} ${temp} ${thermal_damp} iso 0 0 ${pressure_damp}
# fix rho50k all ave/time 10 5000 50000 v_rho mode scalar ave one
# run 50000
# unfix integrate
# unfix rho50k

# Compute initial state
fix 3 all box/relax  aniso 0.0
minimize ${etol} ${ftol} ${maxiter} ${maxeval}
minimize 0 ${ftol} ${maxiter} ${maxeval}
minimize 0 1e-10 ${maxiter} ${maxeval}
minimize 0 1e-10 100000 ${maxeval}
minimize 0 1e-10 100000 100000
Generated 6 of 6 mixed pair_coeff terms from arithmetic mixing rule
WARNING: Energy due to 3 extra global DOFs will be included in minimizer energies
 (src/min.cpp:222)
WARNING: Inconsistent image flags
For more information see https://docs.lammps.org/err0027 (src/domain.cpp:1052)
Per MPI rank memory allocation (min/avg/max) = 20.58 | 20.58 | 20.58 Mbytes
   Step          Temp          PotEng         KinEng         TotEng         Press          Volume        Density    
       113   0              105.96069      0              105.96069      15168.577      3962.7892      1.6800742    
       128   0              105.58505      0              105.58505      14680.745      3964.2253      1.6794655    
Loop time of 0.043922 on 1 procs for 15 steps with 371 atoms

100.0% CPU use with 1 MPI tasks x 1 OpenMP threads

Minimization stats:
  Stopping criterion = linesearch alpha is zero
  Energy initial, next-to-last, final = 
      105.960692854437    105.58505054028    105.58505054028
  Force two-norm initial, final = 1540.4773 1491.8576
  Force max component initial, final = 993.43222 962.55221
  Final line search alpha, max atom move = 3.0961772e-15 2.9802322e-12
  Iterations, force evaluations = 15 190

MPI task timing breakdown:
Section |  min time  |  avg time  |  max time  |%varavg| %total
---------------------------------------------------------------
Pair    | 0.029226   | 0.029226   | 0.029226   |   0.0 | 66.54
Bond    | 0.0085423  | 0.0085423  | 0.0085423  |   0.0 | 19.45
Neigh   | 0          | 0          | 0          |   0.0 |  0.00
Comm    | 0.00093051 | 0.00093051 | 0.00093051 |   0.0 |  2.12
Output  | 0          | 0          | 0          |   0.0 |  0.00
Modify  | 0          | 0          | 0          |   0.0 |  0.00
Other   |            | 0.005223   |            |       | 11.89

Nlocal:            371 ave         371 max         371 min
Histogram: 1 0 0 0 0 0 0 0 0 0
Nghost:           2413 ave        2413 max        2413 min
Histogram: 1 0 0 0 0 0 0 0 0 0
Neighs:          23629 ave       23629 max       23629 min
Histogram: 1 0 0 0 0 0 0 0 0 0

Total # of neighbors = 23629
Ave neighs/atom = 63.690027
Ave special neighs/atom = 6.1832884
Neighbor list builds = 0
Dangerous builds = 0

variable tmp equal pxx
variable pxx0 equal ${tmp}
variable pxx0 equal 16297.1438633444
variable tmp equal pyy
variable pyy0 equal ${tmp}
variable pyy0 equal 11093.7377932993
variable tmp equal pzz
variable pzz0 equal ${tmp}
variable pzz0 equal 16651.3530577327
variable tmp equal pyz
variable pyz0 equal ${tmp}
variable pyz0 equal 166.457079640782
variable tmp equal pxz
variable pxz0 equal ${tmp}
variable pxz0 equal 2069.23078065501
variable tmp equal pxy
variable pxy0 equal ${tmp}
variable pxy0 equal 1323.72976667852

variable tmp equal lx
variable lx0 equal ${tmp}
variable lx0 equal 16.8619961035081
variable tmp equal ly
variable ly0 equal ${tmp}
variable ly0 equal 12.6106638589229
variable tmp equal lz
variable lz0 equal ${tmp}
variable lz0 equal 18.6428110037033

# These formulas define the derivatives w.r.t. strain components
# Constants uses $, variables use v_
variable d1 equal -(v_pxx1-${pxx0})/(v_delta/v_len0)*${cfac}
variable d1 equal -(v_pxx1-16297.1438633444)/(v_delta/v_len0)*${cfac}
variable d1 equal -(v_pxx1-16297.1438633444)/(v_delta/v_len0)*0.0001
variable d2 equal -(v_pyy1-${pyy0})/(v_delta/v_len0)*${cfac}
variable d2 equal -(v_pyy1-11093.7377932993)/(v_delta/v_len0)*${cfac}
variable d2 equal -(v_pyy1-11093.7377932993)/(v_delta/v_len0)*0.0001
variable d3 equal -(v_pzz1-${pzz0})/(v_delta/v_len0)*${cfac}
variable d3 equal -(v_pzz1-16651.3530577327)/(v_delta/v_len0)*${cfac}
variable d3 equal -(v_pzz1-16651.3530577327)/(v_delta/v_len0)*0.0001
variable d4 equal -(v_pyz1-${pyz0})/(v_delta/v_len0)*${cfac}
variable d4 equal -(v_pyz1-166.457079640782)/(v_delta/v_len0)*${cfac}
variable d4 equal -(v_pyz1-166.457079640782)/(v_delta/v_len0)*0.0001
variable d5 equal -(v_pxz1-${pxz0})/(v_delta/v_len0)*${cfac}
variable d5 equal -(v_pxz1-2069.23078065501)/(v_delta/v_len0)*${cfac}
variable d5 equal -(v_pxz1-2069.23078065501)/(v_delta/v_len0)*0.0001
variable d6 equal -(v_pxy1-${pxy0})/(v_delta/v_len0)*${cfac}
variable d6 equal -(v_pxy1-1323.72976667852)/(v_delta/v_len0)*${cfac}
variable d6 equal -(v_pxy1-1323.72976667852)/(v_delta/v_len0)*0.0001

# displace_atoms all random ${atomjiggle} ${atomjiggle} ${atomjiggle} 87287 units box

# Write restart
unfix 3
write_restart restart_333U-50C-14-vasp.equil
System init for write_restart ...
Generated 6 of 6 mixed pair_coeff terms from arithmetic mixing rule

# uxx Perturbation

variable dir equal 1
include ./input/displace_333U-50C-14-vasp.mod
if "${dir} == 1" then    "variable len0 equal ${lx0}"
variable len0 equal ${lx0}
variable len0 equal 16.8619961035081
if "${dir} == 2" then    "variable len0 equal ${ly0}"
if "${dir} == 3" then    "variable len0 equal ${lz0}"
if "${dir} == 4" then    "variable len0 equal ${lz0}"
if "${dir} == 5" then    "variable len0 equal ${lz0}"
if "${dir} == 6" then    "variable len0 equal ${ly0}"

# Reset box and simulation parameters

clear
OMP_NUM_THREADS environment is not set. Defaulting to 1 thread.
  using 1 OpenMP thread(s) per MPI task
box tilt large

The 'box' command has been removed and will be ignored

read_restart restart_333U-50C-14-vasp.equil
Reading restart file ...
  restart file = 10 Sep 2025, LAMMPS = 10 Sep 2025
  restoring atom style full from restart
  triclinic box = (-0.0011285518 -0.00057742946 -0.0012760019) to (16.860868 12.610086 18.641535) with tilt (-8.8518366 0.45895283 0.20544912)
WARNING: Triclinic box skew is large. LAMMPS will run inefficiently. (src/domain.cpp:221)
  1 by 1 by 1 MPI processor grid
  restoring pair style lj/cut from restart
  restoring bond style harmonic from restart
  restoring angle style hybrid from restart
  restoring dihedral style harmonic from restart
  371 atoms
  396 bonds
  751 angles
  942 dihedrals
Finding 1-2 1-3 1-4 neighbors ...
  special bond factors lj:    0        0        1       
  special bond factors coul:  0        0        1       
     4 = max # of 1-2 neighbors
    10 = max # of 1-3 neighbors
    14 = max # of special neighbors
  special bonds CPU = 0.000 seconds
  read_restart CPU = 0.001 seconds
include ./input/angles_333U-50C-14-vasp.mod
angle_style hybrid fourier cosine/periodic
angle_coeff 1 fourier 32.417871        0.343737        0.374972        0.281246
angle_coeff 2 fourier 83.380072        0.343737        0.374972        0.281246
angle_coeff 3 fourier 221.735285        0.343737        0.374972        0.281246
angle_coeff 4 fourier 114.246973        0.343737        0.374972        0.281246
angle_coeff 5 fourier 157.882480        0.343737        0.374972        0.281246
angle_coeff 6 fourier 58.020602        0.343737        0.374972        0.281246
angle_coeff 7 fourier 90.420412        0.343737        0.374972        0.281246
angle_coeff 8 fourier 75.498766        0.343737        0.374972        0.281246
angle_coeff 9 cosine/periodic 88.853997              -1               3

# Negative deformation

variable delta equal -${up}*${len0}
variable delta equal -0.02*${len0}
variable delta equal -0.02*16.8619961035081
variable deltaxy equal -${up}*xy
variable deltaxy equal -0.02*xy
variable deltaxz equal -${up}*xz
variable deltaxz equal -0.02*xz
variable deltayz equal -${up}*yz
variable deltayz equal -0.02*yz
if "${dir} == 1" then    "change_box all x delta 0 ${delta} xy delta ${deltaxy} xz delta ${deltaxz} remap units box"
change_box all x delta 0 ${delta} xy delta ${deltaxy} xz delta ${deltaxz} remap units box
change_box all x delta 0 -0.337239922070162 xy delta ${deltaxy} xz delta ${deltaxz} remap units box
change_box all x delta 0 -0.337239922070162 xy delta 0.177036732663558 xz delta ${deltaxz} remap units box
change_box all x delta 0 -0.337239922070162 xy delta 0.177036732663558 xz delta -0.00917905651578061 remap units box
Changing box ...
WARNING: Triclinic box skew is large. LAMMPS will run inefficiently. (src/domain.cpp:221)
  triclinic box = (-0.0011285518 -0.00057742946 -0.0012760019) to (16.523628 12.610086 18.641535) with tilt (-8.8518366 0.45895283 0.20544912)
WARNING: Triclinic box skew is large. LAMMPS will run inefficiently. (src/domain.cpp:221)
  triclinic box = (-0.0011285518 -0.00057742946 -0.0012760019) to (16.523628 12.610086 18.641535) with tilt (-8.6747999 0.45895283 0.20544912)
WARNING: Triclinic box skew is large. LAMMPS will run inefficiently. (src/domain.cpp:221)
  triclinic box = (-0.0011285518 -0.00057742946 -0.0012760019) to (16.523628 12.610086 18.641535) with tilt (-8.6747999 0.44977377 0.20544912)
if "${dir} == 2" then    "change_box all y delta 0 ${delta} yz delta ${deltayz} remap units box"
if "${dir} == 3" then    "change_box all z delta 0 ${delta} remap units box"
if "${dir} == 4" then    "change_box all yz delta ${delta} remap units box"
if "${dir} == 5" then    "change_box all xz delta ${delta} remap units box"
if "${dir} == 6" then    "change_box all xy delta ${delta} remap units box"

# Relax atoms positions

minimize ${etol} ${ftol} ${maxiter} ${maxeval}
minimize 0 ${ftol} ${maxiter} ${maxeval}
minimize 0 1e-10 ${maxiter} ${maxeval}
minimize 0 1e-10 100000 ${maxeval}
minimize 0 1e-10 100000 100000
Generated 6 of 6 mixed pair_coeff terms from arithmetic mixing rule
Neighbor list info ...
  update: every = 1 steps, delay = 0 steps, check = yes
  max neighbors/atom: 2000, page size: 100000
  master list distance cutoff = 7
  ghost atom cutoff = 7
  binsize = 3.5, bins = 8 4 6
  1 neighbor lists, perpetual/occasional/extra = 1 0 0
  (1) pair lj/cut, perpetual
      attributes: half, newton on
      pair build: half/bin/newton/tri
      stencil: half/bin/3d/tri
      bin: standard
WARNING: Inconsistent image flags
For more information see https://docs.lammps.org/err0027 (src/domain.cpp:1052)
Per MPI rank memory allocation (min/avg/max) = 19.52 | 19.52 | 19.52 Mbytes
   Step          Temp          E_pair         E_mol          TotEng         Press     
       128   0             -385.1287       541.45944      156.33074      41622.147    
       158   0             -395.9939       523.28574      127.29184      23242.448    
Loop time of 0.0234688 on 1 procs for 30 steps with 371 atoms

100.0% CPU use with 1 MPI tasks x 1 OpenMP threads

Minimization stats:
  Stopping criterion = linesearch alpha is zero
  Energy initial, next-to-last, final = 
      156.330741063935   127.291844088754   127.291844088754
  Force two-norm initial, final = 167.2048 15.888697
  Force max component initial, final = 19.798373 2.4839961
  Final line search alpha, max atom move = 2.6166781e-11 6.4998182e-11
  Iterations, force evaluations = 30 115

MPI task timing breakdown:
Section |  min time  |  avg time  |  max time  |%varavg| %total
---------------------------------------------------------------
Pair    | 0.018005   | 0.018005   | 0.018005   |   0.0 | 76.72
Bond    | 0.0044265  | 0.0044265  | 0.0044265  |   0.0 | 18.86
Neigh   | 0          | 0          | 0          |   0.0 |  0.00
Comm    | 0.00057559 | 0.00057559 | 0.00057559 |   0.0 |  2.45
Output  | 0          | 0          | 0          |   0.0 |  0.00
Modify  | 0          | 0          | 0          |   0.0 |  0.00
Other   |            | 0.0004613  |            |       |  1.97

Nlocal:            371 ave         371 max         371 min
Histogram: 1 0 0 0 0 0 0 0 0 0
Nghost:           2439 ave        2439 max        2439 min
Histogram: 1 0 0 0 0 0 0 0 0 0
Neighs:          24108 ave       24108 max       24108 min
Histogram: 1 0 0 0 0 0 0 0 0 0

Total # of neighbors = 24108
Ave neighs/atom = 64.981132
Ave special neighs/atom = 6.1832884
Neighbor list builds = 0
Dangerous builds = 0

# Obtain new stress tensor

variable tmp equal pxx
variable pxx1 equal ${tmp}
variable pxx1 equal 28757.7991959414
variable tmp equal pyy
variable pyy1 equal ${tmp}
variable pyy1 equal 16926.5766477001
variable tmp equal pzz
variable pzz1 equal ${tmp}
variable pzz1 equal 24042.9669066479
variable tmp equal pxy
variable pxy1 equal ${tmp}
variable pxy1 equal 1382.86559702279
variable tmp equal pxz
variable pxz1 equal ${tmp}
variable pxz1 equal 2197.41510292743
variable tmp equal pyz
variable pyz1 equal ${tmp}
variable pyz1 equal -439.292955221263

# Compute elastic constant from pressure tensor

variable C1neg equal ${d1}
variable C1neg equal 62.303276662985
variable C2neg equal ${d2}
variable C2neg equal 29.164194272004
variable C3neg equal ${d3}
variable C3neg equal 36.958069244576
variable C4neg equal ${d4}
variable C4neg equal -3.02875017431022
variable C5neg equal ${d5}
variable C5neg equal 0.640921611362098
variable C6neg equal ${d6}
variable C6neg equal 0.29567915172135

# Reset box and simulation parameters

clear
OMP_NUM_THREADS environment is not set. Defaulting to 1 thread.
  using 1 OpenMP thread(s) per MPI task
box tilt large

The 'box' command has been removed and will be ignored

read_restart restart_333U-50C-14-vasp.equil
Reading restart file ...
  restart file = 10 Sep 2025, LAMMPS = 10 Sep 2025
  restoring atom style full from restart
  triclinic box = (-0.0011285518 -0.00057742946 -0.0012760019) to (16.860868 12.610086 18.641535) with tilt (-8.8518366 0.45895283 0.20544912)
WARNING: Triclinic box skew is large. LAMMPS will run inefficiently. (src/domain.cpp:221)
  1 by 1 by 1 MPI processor grid
  restoring pair style lj/cut from restart
  restoring bond style harmonic from restart
  restoring angle style hybrid from restart
  restoring dihedral style harmonic from restart
  371 atoms
  396 bonds
  751 angles
  942 dihedrals
Finding 1-2 1-3 1-4 neighbors ...
  special bond factors lj:    0        0        1       
  special bond factors coul:  0        0        1       
     4 = max # of 1-2 neighbors
    10 = max # of 1-3 neighbors
    14 = max # of special neighbors
  special bonds CPU = 0.000 seconds
  read_restart CPU = 0.001 seconds
include ./input/angles_333U-50C-14-vasp.mod
angle_style hybrid fourier cosine/periodic
angle_coeff 1 fourier 32.417871        0.343737        0.374972        0.281246
angle_coeff 2 fourier 83.380072        0.343737        0.374972        0.281246
angle_coeff 3 fourier 221.735285        0.343737        0.374972        0.281246
angle_coeff 4 fourier 114.246973        0.343737        0.374972        0.281246
angle_coeff 5 fourier 157.882480        0.343737        0.374972        0.281246
angle_coeff 6 fourier 58.020602        0.343737        0.374972        0.281246
angle_coeff 7 fourier 90.420412        0.343737        0.374972        0.281246
angle_coeff 8 fourier 75.498766        0.343737        0.374972        0.281246
angle_coeff 9 cosine/periodic 88.853997              -1               3

# Positive deformation

variable delta equal ${up}*${len0}
variable delta equal 0.02*${len0}
variable delta equal 0.02*16.8619961035081
variable deltaxy equal ${up}*xy
variable deltaxy equal 0.02*xy
variable deltaxz equal ${up}*xz
variable deltaxz equal 0.02*xz
variable deltayz equal ${up}*yz
variable deltayz equal 0.02*yz
if "${dir} == 1" then    "change_box all x delta 0 ${delta} xy delta ${deltaxy} xz delta ${deltaxz} remap units box"
change_box all x delta 0 ${delta} xy delta ${deltaxy} xz delta ${deltaxz} remap units box
change_box all x delta 0 0.337239922070162 xy delta ${deltaxy} xz delta ${deltaxz} remap units box
change_box all x delta 0 0.337239922070162 xy delta -0.177036732663558 xz delta ${deltaxz} remap units box
change_box all x delta 0 0.337239922070162 xy delta -0.177036732663558 xz delta 0.00917905651578061 remap units box
Changing box ...
WARNING: Triclinic box skew is large. LAMMPS will run inefficiently. (src/domain.cpp:221)
  triclinic box = (-0.0011285518 -0.00057742946 -0.0012760019) to (17.198107 12.610086 18.641535) with tilt (-8.8518366 0.45895283 0.20544912)
WARNING: Triclinic box skew is large. LAMMPS will run inefficiently. (src/domain.cpp:221)
  triclinic box = (-0.0011285518 -0.00057742946 -0.0012760019) to (17.198107 12.610086 18.641535) with tilt (-9.0288734 0.45895283 0.20544912)
WARNING: Triclinic box skew is large. LAMMPS will run inefficiently. (src/domain.cpp:221)
  triclinic box = (-0.0011285518 -0.00057742946 -0.0012760019) to (17.198107 12.610086 18.641535) with tilt (-9.0288734 0.46813188 0.20544912)
if "${dir} == 2" then    "change_box all y delta 0 ${delta} yz delta ${deltayz} remap units box"
if "${dir} == 3" then    "change_box all z delta 0 ${delta} remap units box"
if "${dir} == 4" then    "change_box all yz delta ${delta} remap units box"
if "${dir} == 5" then    "change_box all xz delta ${delta} remap units box"
if "${dir} == 6" then    "change_box all xy delta ${delta} remap units box"

# Relax atoms positions

minimize ${etol} ${ftol} ${maxiter} ${maxeval}
minimize 0 ${ftol} ${maxiter} ${maxeval}
minimize 0 1e-10 ${maxiter} ${maxeval}
minimize 0 1e-10 100000 ${maxeval}
minimize 0 1e-10 100000 100000
Generated 6 of 6 mixed pair_coeff terms from arithmetic mixing rule
Neighbor list info ...
  update: every = 1 steps, delay = 0 steps, check = yes
  max neighbors/atom: 2000, page size: 100000
  master list distance cutoff = 7
  ghost atom cutoff = 7
  binsize = 3.5, bins = 8 4 6
  1 neighbor lists, perpetual/occasional/extra = 1 0 0
  (1) pair lj/cut, perpetual
      attributes: half, newton on
      pair build: half/bin/newton/tri
      stencil: half/bin/3d/tri
      bin: standard
WARNING: Inconsistent image flags
For more information see https://docs.lammps.org/err0027 (src/domain.cpp:1052)
Per MPI rank memory allocation (min/avg/max) = 19.52 | 19.52 | 19.52 Mbytes
   Step          Temp          E_pair         E_mol          TotEng         Press     
       128   0             -433.51052      552.94908      119.43856     -11137.328    
       143   0             -433.03327      525.84819      92.814915      6675.2928    
Loop time of 0.0175653 on 1 procs for 15 steps with 371 atoms

100.0% CPU use with 1 MPI tasks x 1 OpenMP threads

Minimization stats:
  Stopping criterion = linesearch alpha is zero
  Energy initial, next-to-last, final = 
      119.438559175421   92.8149148855883   92.8149148855883
  Force two-norm initial, final = 171.54613 23.608545
  Force max component initial, final = 20.414262 3.4861533
  Final line search alpha, max atom move = 1.3361719e-11 4.6580999e-11
  Iterations, force evaluations = 15 88

MPI task timing breakdown:
Section |  min time  |  avg time  |  max time  |%varavg| %total
---------------------------------------------------------------
Pair    | 0.013371   | 0.013371   | 0.013371   |   0.0 | 76.12
Bond    | 0.0034232  | 0.0034232  | 0.0034232  |   0.0 | 19.49
Neigh   | 0          | 0          | 0          |   0.0 |  0.00
Comm    | 0.00042945 | 0.00042945 | 0.00042945 |   0.0 |  2.44
Output  | 0          | 0          | 0          |   0.0 |  0.00
Modify  | 0          | 0          | 0          |   0.0 |  0.00
Other   |            | 0.0003417  |            |       |  1.95

Nlocal:            371 ave         371 max         371 min
Histogram: 1 0 0 0 0 0 0 0 0 0
Nghost:           2397 ave        2397 max        2397 min
Histogram: 1 0 0 0 0 0 0 0 0 0
Neighs:          23100 ave       23100 max       23100 min
Histogram: 1 0 0 0 0 0 0 0 0 0

Total # of neighbors = 23100
Ave neighs/atom = 62.264151
Ave special neighs/atom = 6.1832884
Neighbor list builds = 0
Dangerous builds = 0

# Obtain new stress tensor

variable tmp equal pe
variable e1 equal ${tmp}
variable e1 equal 92.8149148855883
variable tmp equal press
variable p1 equal ${tmp}
variable p1 equal 6675.29280838914
variable tmp equal pxx
variable pxx1 equal ${tmp}
variable pxx1 equal 2797.35322321078
variable tmp equal pyy
variable pyy1 equal ${tmp}
variable pyy1 equal 6104.65537943737
variable tmp equal pzz
variable pzz1 equal ${tmp}
variable pzz1 equal 11123.8698225193
variable tmp equal pxy
variable pxy1 equal ${tmp}
variable pxy1 equal 1105.13311544829
variable tmp equal pxz
variable pxz1 equal ${tmp}
variable pxz1 equal 1378.1553892202
variable tmp equal pyz
variable pyz1 equal ${tmp}
variable pyz1 equal 711.350562670034

# Compute elastic constant from pressure tensor

variable C1pos equal ${d1}
variable C1pos equal 67.4989532006681
variable C2pos equal ${d2}
variable C2pos equal 24.9454120693097
variable C3pos equal ${d3}
variable C3pos equal 27.637416176067
variable C4pos equal ${d4}
variable C4pos equal -2.72446741514626
variable C5pos equal ${d5}
variable C5pos equal 3.45537695717405
variable C6pos equal ${d6}
variable C6pos equal 1.09298325615115

# Combine positive and negative

variable C1${dir} equal 0.5*(${C1neg}+${C1pos})
variable C11 equal 0.5*(${C1neg}+${C1pos})
variable C11 equal 0.5*(62.303276662985+${C1pos})
variable C11 equal 0.5*(62.303276662985+67.4989532006681)
variable C2${dir} equal 0.5*(${C2neg}+${C2pos})
variable C21 equal 0.5*(${C2neg}+${C2pos})
variable C21 equal 0.5*(29.164194272004+${C2pos})
variable C21 equal 0.5*(29.164194272004+24.9454120693097)
variable C3${dir} equal 0.5*(${C3neg}+${C3pos})
variable C31 equal 0.5*(${C3neg}+${C3pos})
variable C31 equal 0.5*(36.958069244576+${C3pos})
variable C31 equal 0.5*(36.958069244576+27.637416176067)
variable C4${dir} equal 0.5*(${C4neg}+${C4pos})
variable C41 equal 0.5*(${C4neg}+${C4pos})
variable C41 equal 0.5*(-3.02875017431022+${C4pos})
variable C41 equal 0.5*(-3.02875017431022+-2.72446741514626)
variable C5${dir} equal 0.5*(${C5neg}+${C5pos})
variable C51 equal 0.5*(${C5neg}+${C5pos})
variable C51 equal 0.5*(0.640921611362098+${C5pos})
variable C51 equal 0.5*(0.640921611362098+3.45537695717405)
variable C6${dir} equal 0.5*(${C6neg}+${C6pos})
variable C61 equal 0.5*(${C6neg}+${C6pos})
variable C61 equal 0.5*(0.29567915172135+${C6pos})
variable C61 equal 0.5*(0.29567915172135+1.09298325615115)

# Delete dir to make sure it is not reused

variable dir delete

# uyy Perturbation

variable dir equal 2
include ./input/displace_333U-50C-14-vasp.mod
if "${dir} == 1" then    "variable len0 equal ${lx0}"
if "${dir} == 2" then    "variable len0 equal ${ly0}"
variable len0 equal ${ly0}
variable len0 equal 12.6106638589229
if "${dir} == 3" then    "variable len0 equal ${lz0}"
if "${dir} == 4" then    "variable len0 equal ${lz0}"
if "${dir} == 5" then    "variable len0 equal ${lz0}"
if "${dir} == 6" then    "variable len0 equal ${ly0}"

# Reset box and simulation parameters

clear
OMP_NUM_THREADS environment is not set. Defaulting to 1 thread.
  using 1 OpenMP thread(s) per MPI task
box tilt large

The 'box' command has been removed and will be ignored

read_restart restart_333U-50C-14-vasp.equil
Reading restart file ...
  restart file = 10 Sep 2025, LAMMPS = 10 Sep 2025
  restoring atom style full from restart
  triclinic box = (-0.0011285518 -0.00057742946 -0.0012760019) to (16.860868 12.610086 18.641535) with tilt (-8.8518366 0.45895283 0.20544912)
WARNING: Triclinic box skew is large. LAMMPS will run inefficiently. (src/domain.cpp:221)
  1 by 1 by 1 MPI processor grid
  restoring pair style lj/cut from restart
  restoring bond style harmonic from restart
  restoring angle style hybrid from restart
  restoring dihedral style harmonic from restart
  371 atoms
  396 bonds
  751 angles
  942 dihedrals
Finding 1-2 1-3 1-4 neighbors ...
  special bond factors lj:    0        0        1       
  special bond factors coul:  0        0        1       
     4 = max # of 1-2 neighbors
    10 = max # of 1-3 neighbors
    14 = max # of special neighbors
  special bonds CPU = 0.000 seconds
  read_restart CPU = 0.001 seconds
include ./input/angles_333U-50C-14-vasp.mod
angle_style hybrid fourier cosine/periodic
angle_coeff 1 fourier 32.417871        0.343737        0.374972        0.281246
angle_coeff 2 fourier 83.380072        0.343737        0.374972        0.281246
angle_coeff 3 fourier 221.735285        0.343737        0.374972        0.281246
angle_coeff 4 fourier 114.246973        0.343737        0.374972        0.281246
angle_coeff 5 fourier 157.882480        0.343737        0.374972        0.281246
angle_coeff 6 fourier 58.020602        0.343737        0.374972        0.281246
angle_coeff 7 fourier 90.420412        0.343737        0.374972        0.281246
angle_coeff 8 fourier 75.498766        0.343737        0.374972        0.281246
angle_coeff 9 cosine/periodic 88.853997              -1               3

# Negative deformation

variable delta equal -${up}*${len0}
variable delta equal -0.02*${len0}
variable delta equal -0.02*12.6106638589229
variable deltaxy equal -${up}*xy
variable deltaxy equal -0.02*xy
variable deltaxz equal -${up}*xz
variable deltaxz equal -0.02*xz
variable deltayz equal -${up}*yz
variable deltayz equal -0.02*yz
if "${dir} == 1" then    "change_box all x delta 0 ${delta} xy delta ${deltaxy} xz delta ${deltaxz} remap units box"
if "${dir} == 2" then    "change_box all y delta 0 ${delta} yz delta ${deltayz} remap units box"
change_box all y delta 0 ${delta} yz delta ${deltayz} remap units box
change_box all y delta 0 -0.252213277178458 yz delta ${deltayz} remap units box
change_box all y delta 0 -0.252213277178458 yz delta -0.00410898247625393 remap units box
Changing box ...
WARNING: Triclinic box skew is large. LAMMPS will run inefficiently. (src/domain.cpp:221)
  triclinic box = (-0.0011285518 -0.00057742946 -0.0012760019) to (16.860868 12.357873 18.641535) with tilt (-8.8518366 0.45895283 0.20544912)
WARNING: Triclinic box skew is large. LAMMPS will run inefficiently. (src/domain.cpp:221)
  triclinic box = (-0.0011285518 -0.00057742946 -0.0012760019) to (16.860868 12.357873 18.641535) with tilt (-8.8518366 0.45895283 0.20134014)
if "${dir} == 3" then    "change_box all z delta 0 ${delta} remap units box"
if "${dir} == 4" then    "change_box all yz delta ${delta} remap units box"
if "${dir} == 5" then    "change_box all xz delta ${delta} remap units box"
if "${dir} == 6" then    "change_box all xy delta ${delta} remap units box"

# Relax atoms positions

minimize ${etol} ${ftol} ${maxiter} ${maxeval}
minimize 0 ${ftol} ${maxiter} ${maxeval}
minimize 0 1e-10 ${maxiter} ${maxeval}
minimize 0 1e-10 100000 ${maxeval}
minimize 0 1e-10 100000 100000
Generated 6 of 6 mixed pair_coeff terms from arithmetic mixing rule
Neighbor list info ...
  update: every = 1 steps, delay = 0 steps, check = yes
  max neighbors/atom: 2000, page size: 100000
  master list distance cutoff = 7
  ghost atom cutoff = 7
  binsize = 3.5, bins = 8 4 6
  1 neighbor lists, perpetual/occasional/extra = 1 0 0
  (1) pair lj/cut, perpetual
      attributes: half, newton on
      pair build: half/bin/newton/tri
      stencil: half/bin/3d/tri
      bin: standard
WARNING: Inconsistent image flags
For more information see https://docs.lammps.org/err0027 (src/domain.cpp:1052)
Per MPI rank memory allocation (min/avg/max) = 19.53 | 19.53 | 19.53 Mbytes
   Step          Temp          E_pair         E_mol          TotEng         Press     
       128   0             -387.46078      536.22515      148.76437      41402.916    
       142   0             -390.0795       514.88538      124.80587      24533.397    
WARNING: Bond/angle/dihedral extent > half of periodic box length (src/domain.cpp:1174)
Loop time of 0.0172005 on 1 procs for 14 steps with 371 atoms

100.0% CPU use with 1 MPI tasks x 1 OpenMP threads

Minimization stats:
  Stopping criterion = linesearch alpha is zero
  Energy initial, next-to-last, final = 
      148.764367340058   124.805874875058   124.805874875058
  Force two-norm initial, final = 173.94224 23.641859
  Force max component initial, final = 20.55521 2.9657425
  Final line search alpha, max atom move = 1.1613332e-11 3.4442152e-11
  Iterations, force evaluations = 14 86

MPI task timing breakdown:
Section |  min time  |  avg time  |  max time  |%varavg| %total
---------------------------------------------------------------
Pair    | 0.013204   | 0.013204   | 0.013204   |   0.0 | 76.76
Bond    | 0.0032072  | 0.0032072  | 0.0032072  |   0.0 | 18.65
Neigh   | 0          | 0          | 0          |   0.0 |  0.00
Comm    | 0.00043188 | 0.00043188 | 0.00043188 |   0.0 |  2.51
Output  | 0          | 0          | 0          |   0.0 |  0.00
Modify  | 0          | 0          | 0          |   0.0 |  0.00
Other   |            | 0.0003575  |            |       |  2.08

Nlocal:            371 ave         371 max         371 min
Histogram: 1 0 0 0 0 0 0 0 0 0
Nghost:           2485 ave        2485 max        2485 min
Histogram: 1 0 0 0 0 0 0 0 0 0
Neighs:          24141 ave       24141 max       24141 min
Histogram: 1 0 0 0 0 0 0 0 0 0

Total # of neighbors = 24141
Ave neighs/atom = 65.070081
Ave special neighs/atom = 6.1832884
Neighbor list builds = 0
Dangerous builds = 0

# Obtain new stress tensor

variable tmp equal pxx
variable pxx1 equal ${tmp}
variable pxx1 equal 22511.559209126
variable tmp equal pyy
variable pyy1 equal ${tmp}
variable pyy1 equal 26411.3350453521
variable tmp equal pzz
variable pzz1 equal ${tmp}
variable pzz1 equal 24677.2955093434
variable tmp equal pxy
variable pxy1 equal ${tmp}
variable pxy1 equal 2400.43265108723
variable tmp equal pxz
variable pxz1 equal ${tmp}
variable pxz1 equal 2333.57010879191
variable tmp equal pyz
variable pyz1 equal ${tmp}
variable pyz1 equal 727.835055837239

# Compute elastic constant from pressure tensor

variable C1neg equal ${d1}
variable C1neg equal 31.072076728908
variable C2neg equal ${d2}
variable C2neg equal 76.587986260264
variable C3neg equal ${d3}
variable C3neg equal 40.1297122580535
variable C4neg equal ${d4}
variable C4neg equal 2.80688988098228
variable C5neg equal ${d5}
variable C5neg equal 1.3216966406845
variable C6neg equal ${d6}
variable C6neg equal 5.38351442204355

# Reset box and simulation parameters

clear
OMP_NUM_THREADS environment is not set. Defaulting to 1 thread.
  using 1 OpenMP thread(s) per MPI task
box tilt large

The 'box' command has been removed and will be ignored

read_restart restart_333U-50C-14-vasp.equil
Reading restart file ...
  restart file = 10 Sep 2025, LAMMPS = 10 Sep 2025
  restoring atom style full from restart
  triclinic box = (-0.0011285518 -0.00057742946 -0.0012760019) to (16.860868 12.610086 18.641535) with tilt (-8.8518366 0.45895283 0.20544912)
WARNING: Triclinic box skew is large. LAMMPS will run inefficiently. (src/domain.cpp:221)
  1 by 1 by 1 MPI processor grid
  restoring pair style lj/cut from restart
  restoring bond style harmonic from restart
  restoring angle style hybrid from restart
  restoring dihedral style harmonic from restart
  371 atoms
  396 bonds
  751 angles
  942 dihedrals
Finding 1-2 1-3 1-4 neighbors ...
  special bond factors lj:    0        0        1       
  special bond factors coul:  0        0        1       
     4 = max # of 1-2 neighbors
    10 = max # of 1-3 neighbors
    14 = max # of special neighbors
  special bonds CPU = 0.000 seconds
  read_restart CPU = 0.001 seconds
include ./input/angles_333U-50C-14-vasp.mod
angle_style hybrid fourier cosine/periodic
angle_coeff 1 fourier 32.417871        0.343737        0.374972        0.281246
angle_coeff 2 fourier 83.380072        0.343737        0.374972        0.281246
angle_coeff 3 fourier 221.735285        0.343737        0.374972        0.281246
angle_coeff 4 fourier 114.246973        0.343737        0.374972        0.281246
angle_coeff 5 fourier 157.882480        0.343737        0.374972        0.281246
angle_coeff 6 fourier 58.020602        0.343737        0.374972        0.281246
angle_coeff 7 fourier 90.420412        0.343737        0.374972        0.281246
angle_coeff 8 fourier 75.498766        0.343737        0.374972        0.281246
angle_coeff 9 cosine/periodic 88.853997              -1               3

# Positive deformation

variable delta equal ${up}*${len0}
variable delta equal 0.02*${len0}
variable delta equal 0.02*12.6106638589229
variable deltaxy equal ${up}*xy
variable deltaxy equal 0.02*xy
variable deltaxz equal ${up}*xz
variable deltaxz equal 0.02*xz
variable deltayz equal ${up}*yz
variable deltayz equal 0.02*yz
if "${dir} == 1" then    "change_box all x delta 0 ${delta} xy delta ${deltaxy} xz delta ${deltaxz} remap units box"
if "${dir} == 2" then    "change_box all y delta 0 ${delta} yz delta ${deltayz} remap units box"
change_box all y delta 0 ${delta} yz delta ${deltayz} remap units box
change_box all y delta 0 0.252213277178458 yz delta ${deltayz} remap units box
change_box all y delta 0 0.252213277178458 yz delta 0.00410898247625393 remap units box
Changing box ...
WARNING: Triclinic box skew is large. LAMMPS will run inefficiently. (src/domain.cpp:221)
  triclinic box = (-0.0011285518 -0.00057742946 -0.0012760019) to (16.860868 12.8623 18.641535) with tilt (-8.8518366 0.45895283 0.20544912)
WARNING: Triclinic box skew is large. LAMMPS will run inefficiently. (src/domain.cpp:221)
  triclinic box = (-0.0011285518 -0.00057742946 -0.0012760019) to (16.860868 12.8623 18.641535) with tilt (-8.8518366 0.45895283 0.20955811)
if "${dir} == 3" then    "change_box all z delta 0 ${delta} remap units box"
if "${dir} == 4" then    "change_box all yz delta ${delta} remap units box"
if "${dir} == 5" then    "change_box all xz delta ${delta} remap units box"
if "${dir} == 6" then    "change_box all xy delta ${delta} remap units box"

# Relax atoms positions

minimize ${etol} ${ftol} ${maxiter} ${maxeval}
minimize 0 ${ftol} ${maxiter} ${maxeval}
minimize 0 1e-10 ${maxiter} ${maxeval}
minimize 0 1e-10 100000 ${maxeval}
minimize 0 1e-10 100000 100000
Generated 6 of 6 mixed pair_coeff terms from arithmetic mixing rule
Neighbor list info ...
  update: every = 1 steps, delay = 0 steps, check = yes
  max neighbors/atom: 2000, page size: 100000
  master list distance cutoff = 7
  ghost atom cutoff = 7
  binsize = 3.5, bins = 8 4 6
  1 neighbor lists, perpetual/occasional/extra = 1 0 0
  (1) pair lj/cut, perpetual
      attributes: half, newton on
      pair build: half/bin/newton/tri
      stencil: half/bin/3d/tri
      bin: standard
WARNING: Inconsistent image flags
For more information see https://docs.lammps.org/err0027 (src/domain.cpp:1052)
Per MPI rank memory allocation (min/avg/max) = 19.52 | 19.52 | 19.52 Mbytes
   Step          Temp          E_pair         E_mol          TotEng         Press     
       128   0             -433.46933      557.89769      124.42836     -11002.042    
       146   0             -431.27162      530.24324      98.971617      6926.1757    
Loop time of 0.0177268 on 1 procs for 18 steps with 371 atoms

100.0% CPU use with 1 MPI tasks x 1 OpenMP threads

Minimization stats:
  Stopping criterion = linesearch alpha is zero
  Energy initial, next-to-last, final = 
      124.428363825347   98.9716169451285   98.9716169451285
  Force two-norm initial, final = 176.85875 20.307276
  Force max component initial, final = 20.286436 2.7915126
  Final line search alpha, max atom move = 1.8254038e-11 5.0956378e-11
  Iterations, force evaluations = 18 93

MPI task timing breakdown:
Section |  min time  |  avg time  |  max time  |%varavg| %total
---------------------------------------------------------------
Pair    | 0.013488   | 0.013488   | 0.013488   |   0.0 | 76.09
Bond    | 0.0034582  | 0.0034582  | 0.0034582  |   0.0 | 19.51
Neigh   | 0          | 0          | 0          |   0.0 |  0.00
Comm    | 0.00041661 | 0.00041661 | 0.00041661 |   0.0 |  2.35
Output  | 0          | 0          | 0          |   0.0 |  0.00
Modify  | 0          | 0          | 0          |   0.0 |  0.00
Other   |            | 0.0003636  |            |       |  2.05

Nlocal:            371 ave         371 max         371 min
Histogram: 1 0 0 0 0 0 0 0 0 0
Nghost:           2381 ave        2381 max        2381 min
Histogram: 1 0 0 0 0 0 0 0 0 0
Neighs:          23133 ave       23133 max       23133 min
Histogram: 1 0 0 0 0 0 0 0 0 0

Total # of neighbors = 23133
Ave neighs/atom = 62.3531
Ave special neighs/atom = 6.1832884
Neighbor list builds = 0
Dangerous builds = 0

# Obtain new stress tensor

variable tmp equal pe
variable e1 equal ${tmp}
variable e1 equal 98.9716169451285
variable tmp equal press
variable p1 equal ${tmp}
variable p1 equal 6926.17573377715
variable tmp equal pxx
variable pxx1 equal ${tmp}
variable pxx1 equal 11010.5845996057
variable tmp equal pyy
variable pyy1 equal ${tmp}
variable pyy1 equal -1516.61987709746
variable tmp equal pzz
variable pzz1 equal ${tmp}
variable pzz1 equal 11284.5624788232
variable tmp equal pxy
variable pxy1 equal ${tmp}
variable pxy1 equal 779.939060636589
variable tmp equal pxz
variable pxz1 equal ${tmp}
variable pxz1 equal 2110.58642985986
variable tmp equal pyz
variable pyz1 equal ${tmp}
variable pyz1 equal 163.258316360531

# Compute elastic constant from pressure tensor

variable C1pos equal ${d1}
variable C1pos equal 26.4327963186935
variable C2pos equal ${d2}
variable C2pos equal 63.0517883519838
variable C3pos equal ${d3}
variable C3pos equal 26.8339528945475
variable C4pos equal ${d4}
variable C4pos equal 0.015993816401255
variable C5pos equal ${d5}
variable C5pos equal -0.206778246024248
variable C6pos equal ${d6}
variable C6pos equal 2.71895353020965

# Combine positive and negative

variable C1${dir} equal 0.5*(${C1neg}+${C1pos})
variable C12 equal 0.5*(${C1neg}+${C1pos})
variable C12 equal 0.5*(31.072076728908+${C1pos})
variable C12 equal 0.5*(31.072076728908+26.4327963186935)
variable C2${dir} equal 0.5*(${C2neg}+${C2pos})
variable C22 equal 0.5*(${C2neg}+${C2pos})
variable C22 equal 0.5*(76.587986260264+${C2pos})
variable C22 equal 0.5*(76.587986260264+63.0517883519838)
variable C3${dir} equal 0.5*(${C3neg}+${C3pos})
variable C32 equal 0.5*(${C3neg}+${C3pos})
variable C32 equal 0.5*(40.1297122580535+${C3pos})
variable C32 equal 0.5*(40.1297122580535+26.8339528945475)
variable C4${dir} equal 0.5*(${C4neg}+${C4pos})
variable C42 equal 0.5*(${C4neg}+${C4pos})
variable C42 equal 0.5*(2.80688988098228+${C4pos})
variable C42 equal 0.5*(2.80688988098228+0.015993816401255)
variable C5${dir} equal 0.5*(${C5neg}+${C5pos})
variable C52 equal 0.5*(${C5neg}+${C5pos})
variable C52 equal 0.5*(1.3216966406845+${C5pos})
variable C52 equal 0.5*(1.3216966406845+-0.206778246024248)
variable C6${dir} equal 0.5*(${C6neg}+${C6pos})
variable C62 equal 0.5*(${C6neg}+${C6pos})
variable C62 equal 0.5*(5.38351442204355+${C6pos})
variable C62 equal 0.5*(5.38351442204355+2.71895353020965)

# Delete dir to make sure it is not reused

variable dir delete

# uzz Perturbation

variable dir equal 3
include ./input/displace_333U-50C-14-vasp.mod
if "${dir} == 1" then    "variable len0 equal ${lx0}"
if "${dir} == 2" then    "variable len0 equal ${ly0}"
if "${dir} == 3" then    "variable len0 equal ${lz0}"
variable len0 equal ${lz0}
variable len0 equal 18.6428110037033
if "${dir} == 4" then    "variable len0 equal ${lz0}"
if "${dir} == 5" then    "variable len0 equal ${lz0}"
if "${dir} == 6" then    "variable len0 equal ${ly0}"

# Reset box and simulation parameters

clear
OMP_NUM_THREADS environment is not set. Defaulting to 1 thread.
  using 1 OpenMP thread(s) per MPI task
box tilt large

The 'box' command has been removed and will be ignored

read_restart restart_333U-50C-14-vasp.equil
Reading restart file ...
  restart file = 10 Sep 2025, LAMMPS = 10 Sep 2025
  restoring atom style full from restart
  triclinic box = (-0.0011285518 -0.00057742946 -0.0012760019) to (16.860868 12.610086 18.641535) with tilt (-8.8518366 0.45895283 0.20544912)
WARNING: Triclinic box skew is large. LAMMPS will run inefficiently. (src/domain.cpp:221)
  1 by 1 by 1 MPI processor grid
  restoring pair style lj/cut from restart
  restoring bond style harmonic from restart
  restoring angle style hybrid from restart
  restoring dihedral style harmonic from restart
  371 atoms
  396 bonds
  751 angles
  942 dihedrals
Finding 1-2 1-3 1-4 neighbors ...
  special bond factors lj:    0        0        1       
  special bond factors coul:  0        0        1       
     4 = max # of 1-2 neighbors
    10 = max # of 1-3 neighbors
    14 = max # of special neighbors
  special bonds CPU = 0.000 seconds
  read_restart CPU = 0.001 seconds
include ./input/angles_333U-50C-14-vasp.mod
angle_style hybrid fourier cosine/periodic
angle_coeff 1 fourier 32.417871        0.343737        0.374972        0.281246
angle_coeff 2 fourier 83.380072        0.343737        0.374972        0.281246
angle_coeff 3 fourier 221.735285        0.343737        0.374972        0.281246
angle_coeff 4 fourier 114.246973        0.343737        0.374972        0.281246
angle_coeff 5 fourier 157.882480        0.343737        0.374972        0.281246
angle_coeff 6 fourier 58.020602        0.343737        0.374972        0.281246
angle_coeff 7 fourier 90.420412        0.343737        0.374972        0.281246
angle_coeff 8 fourier 75.498766        0.343737        0.374972        0.281246
angle_coeff 9 cosine/periodic 88.853997              -1               3

# Negative deformation

variable delta equal -${up}*${len0}
variable delta equal -0.02*${len0}
variable delta equal -0.02*18.6428110037033
variable deltaxy equal -${up}*xy
variable deltaxy equal -0.02*xy
variable deltaxz equal -${up}*xz
variable deltaxz equal -0.02*xz
variable deltayz equal -${up}*yz
variable deltayz equal -0.02*yz
if "${dir} == 1" then    "change_box all x delta 0 ${delta} xy delta ${deltaxy} xz delta ${deltaxz} remap units box"
if "${dir} == 2" then    "change_box all y delta 0 ${delta} yz delta ${deltayz} remap units box"
if "${dir} == 3" then    "change_box all z delta 0 ${delta} remap units box"
change_box all z delta 0 ${delta} remap units box
change_box all z delta 0 -0.372856220074066 remap units box
Changing box ...
WARNING: Triclinic box skew is large. LAMMPS will run inefficiently. (src/domain.cpp:221)
  triclinic box = (-0.0011285518 -0.00057742946 -0.0012760019) to (16.860868 12.610086 18.268679) with tilt (-8.8518366 0.45895283 0.20544912)
if "${dir} == 4" then    "change_box all yz delta ${delta} remap units box"
if "${dir} == 5" then    "change_box all xz delta ${delta} remap units box"
if "${dir} == 6" then    "change_box all xy delta ${delta} remap units box"

# Relax atoms positions

minimize ${etol} ${ftol} ${maxiter} ${maxeval}
minimize 0 ${ftol} ${maxiter} ${maxeval}
minimize 0 1e-10 ${maxiter} ${maxeval}
minimize 0 1e-10 100000 ${maxeval}
minimize 0 1e-10 100000 100000
Generated 6 of 6 mixed pair_coeff terms from arithmetic mixing rule
Neighbor list info ...
  update: every = 1 steps, delay = 0 steps, check = yes
  max neighbors/atom: 2000, page size: 100000
  master list distance cutoff = 7
  ghost atom cutoff = 7
  binsize = 3.5, bins = 8 4 6
  1 neighbor lists, perpetual/occasional/extra = 1 0 0
  (1) pair lj/cut, perpetual
      attributes: half, newton on
      pair build: half/bin/newton/tri
      stencil: half/bin/3d/tri
      bin: standard
WARNING: Inconsistent image flags
For more information see https://docs.lammps.org/err0027 (src/domain.cpp:1052)
Per MPI rank memory allocation (min/avg/max) = 19.52 | 19.52 | 19.52 Mbytes
   Step          Temp          E_pair         E_mol          TotEng         Press     
       128   0             -382.91135      541.03123      158.11988      42924.822    
       141   0             -384.63982      518.7483       134.10848      25803.564    
Loop time of 0.0161788 on 1 procs for 13 steps with 371 atoms

100.0% CPU use with 1 MPI tasks x 1 OpenMP threads

Minimization stats:
  Stopping criterion = linesearch alpha is zero
  Energy initial, next-to-last, final = 
      158.119881763353   134.108479005612   134.108479005612
  Force two-norm initial, final = 175.9739 25.450322
  Force max component initial, final = 19.664158 2.9251849
  Final line search alpha, max atom move = 1.1036817e-11 3.228473e-11
  Iterations, force evaluations = 13 84

MPI task timing breakdown:
Section |  min time  |  avg time  |  max time  |%varavg| %total
---------------------------------------------------------------
Pair    | 0.012492   | 0.012492   | 0.012492   |   0.0 | 77.21
Bond    | 0.003052   | 0.003052   | 0.003052   |   0.0 | 18.86
Neigh   | 0          | 0          | 0          |   0.0 |  0.00
Comm    | 0.00037795 | 0.00037795 | 0.00037795 |   0.0 |  2.34
Output  | 0          | 0          | 0          |   0.0 |  0.00
Modify  | 0          | 0          | 0          |   0.0 |  0.00
Other   |            | 0.0002569  |            |       |  1.59

Nlocal:            371 ave         371 max         371 min
Histogram: 1 0 0 0 0 0 0 0 0 0
Nghost:           2427 ave        2427 max        2427 min
Histogram: 1 0 0 0 0 0 0 0 0 0
Neighs:          24126 ave       24126 max       24126 min
Histogram: 1 0 0 0 0 0 0 0 0 0

Total # of neighbors = 24126
Ave neighs/atom = 65.02965
Ave special neighs/atom = 6.1832884
Neighbor list builds = 0
Dangerous builds = 0

# Obtain new stress tensor

variable tmp equal pxx
variable pxx1 equal ${tmp}
variable pxx1 equal 23059.347765474
variable tmp equal pyy
variable pyy1 equal ${tmp}
variable pyy1 equal 18821.9151335048
variable tmp equal pzz
variable pzz1 equal ${tmp}
variable pzz1 equal 35529.4283417734
variable tmp equal pxy
variable pxy1 equal ${tmp}
variable pxy1 equal 1992.72714681823
variable tmp equal pxz
variable pxz1 equal ${tmp}
variable pxz1 equal 2485.21282306976
variable tmp equal pyz
variable pyz1 equal ${tmp}
variable pyz1 equal 312.007405673639

# Compute elastic constant from pressure tensor

variable C1neg equal ${d1}
variable C1neg equal 33.811019510648
variable C2neg equal ${d2}
variable C2neg equal 38.6408867010275
variable C3neg equal ${d3}
variable C3neg equal 94.3903764202035
variable C4neg equal ${d4}
variable C4neg equal 0.727751630164285
variable C5neg equal ${d5}
variable C5neg equal 2.07991021207375
variable C6neg equal ${d6}
variable C6neg equal 3.34498690069855

# Reset box and simulation parameters

clear
OMP_NUM_THREADS environment is not set. Defaulting to 1 thread.
  using 1 OpenMP thread(s) per MPI task
box tilt large

The 'box' command has been removed and will be ignored

read_restart restart_333U-50C-14-vasp.equil
Reading restart file ...
  restart file = 10 Sep 2025, LAMMPS = 10 Sep 2025
  restoring atom style full from restart
  triclinic box = (-0.0011285518 -0.00057742946 -0.0012760019) to (16.860868 12.610086 18.641535) with tilt (-8.8518366 0.45895283 0.20544912)
WARNING: Triclinic box skew is large. LAMMPS will run inefficiently. (src/domain.cpp:221)
  1 by 1 by 1 MPI processor grid
  restoring pair style lj/cut from restart
  restoring bond style harmonic from restart
  restoring angle style hybrid from restart
  restoring dihedral style harmonic from restart
  371 atoms
  396 bonds
  751 angles
  942 dihedrals
Finding 1-2 1-3 1-4 neighbors ...
  special bond factors lj:    0        0        1       
  special bond factors coul:  0        0        1       
     4 = max # of 1-2 neighbors
    10 = max # of 1-3 neighbors
    14 = max # of special neighbors
  special bonds CPU = 0.000 seconds
  read_restart CPU = 0.001 seconds
include ./input/angles_333U-50C-14-vasp.mod
angle_style hybrid fourier cosine/periodic
angle_coeff 1 fourier 32.417871        0.343737        0.374972        0.281246
angle_coeff 2 fourier 83.380072        0.343737        0.374972        0.281246
angle_coeff 3 fourier 221.735285        0.343737        0.374972        0.281246
angle_coeff 4 fourier 114.246973        0.343737        0.374972        0.281246
angle_coeff 5 fourier 157.882480        0.343737        0.374972        0.281246
angle_coeff 6 fourier 58.020602        0.343737        0.374972        0.281246
angle_coeff 7 fourier 90.420412        0.343737        0.374972        0.281246
angle_coeff 8 fourier 75.498766        0.343737        0.374972        0.281246
angle_coeff 9 cosine/periodic 88.853997              -1               3

# Positive deformation

variable delta equal ${up}*${len0}
variable delta equal 0.02*${len0}
variable delta equal 0.02*18.6428110037033
variable deltaxy equal ${up}*xy
variable deltaxy equal 0.02*xy
variable deltaxz equal ${up}*xz
variable deltaxz equal 0.02*xz
variable deltayz equal ${up}*yz
variable deltayz equal 0.02*yz
if "${dir} == 1" then    "change_box all x delta 0 ${delta} xy delta ${deltaxy} xz delta ${deltaxz} remap units box"
if "${dir} == 2" then    "change_box all y delta 0 ${delta} yz delta ${deltayz} remap units box"
if "${dir} == 3" then    "change_box all z delta 0 ${delta} remap units box"
change_box all z delta 0 ${delta} remap units box
change_box all z delta 0 0.372856220074066 remap units box
Changing box ...
WARNING: Triclinic box skew is large. LAMMPS will run inefficiently. (src/domain.cpp:221)
  triclinic box = (-0.0011285518 -0.00057742946 -0.0012760019) to (16.860868 12.610086 19.014391) with tilt (-8.8518366 0.45895283 0.20544912)
if "${dir} == 4" then    "change_box all yz delta ${delta} remap units box"
if "${dir} == 5" then    "change_box all xz delta ${delta} remap units box"
if "${dir} == 6" then    "change_box all xy delta ${delta} remap units box"

# Relax atoms positions

minimize ${etol} ${ftol} ${maxiter} ${maxeval}
minimize 0 ${ftol} ${maxiter} ${maxeval}
minimize 0 1e-10 ${maxiter} ${maxeval}
minimize 0 1e-10 100000 ${maxeval}
minimize 0 1e-10 100000 100000
Generated 6 of 6 mixed pair_coeff terms from arithmetic mixing rule
Neighbor list info ...
  update: every = 1 steps, delay = 0 steps, check = yes
  max neighbors/atom: 2000, page size: 100000
  master list distance cutoff = 7
  ghost atom cutoff = 7
  binsize = 3.5, bins = 8 4 6
  1 neighbor lists, perpetual/occasional/extra = 1 0 0
  (1) pair lj/cut, perpetual
      attributes: half, newton on
      pair build: half/bin/newton/tri
      stencil: half/bin/3d/tri
      bin: standard
WARNING: Inconsistent image flags
For more information see https://docs.lammps.org/err0027 (src/domain.cpp:1052)
Per MPI rank memory allocation (min/avg/max) = 19.5 | 19.5 | 19.5 Mbytes
   Step          Temp          E_pair         E_mol          TotEng         Press     
       128   0             -436.89295      556.76481      119.87185     -12457.71     
       145   0             -437.38146      529.41756      92.036098      5860.0579    
Loop time of 0.0171948 on 1 procs for 17 steps with 371 atoms

100.0% CPU use with 1 MPI tasks x 1 OpenMP threads

Minimization stats:
  Stopping criterion = linesearch alpha is zero
  Energy initial, next-to-last, final = 
      119.871852706329   92.0360983936244   92.0360983936244
  Force two-norm initial, final = 178.03445 24.361228
  Force max component initial, final = 20.110891 3.8395881
  Final line search alpha, max atom move = 1.8416945e-11 7.0713483e-11
  Iterations, force evaluations = 17 90

MPI task timing breakdown:
Section |  min time  |  avg time  |  max time  |%varavg| %total
---------------------------------------------------------------
Pair    | 0.013109   | 0.013109   | 0.013109   |   0.0 | 76.24
Bond    | 0.0033716  | 0.0033716  | 0.0033716  |   0.0 | 19.61
Neigh   | 0          | 0          | 0          |   0.0 |  0.00
Comm    | 0.00040852 | 0.00040852 | 0.00040852 |   0.0 |  2.38
Output  | 0          | 0          | 0          |   0.0 |  0.00
Modify  | 0          | 0          | 0          |   0.0 |  0.00
Other   |            | 0.0003057  |            |       |  1.78

Nlocal:            371 ave         371 max         371 min
Histogram: 1 0 0 0 0 0 0 0 0 0
Nghost:           2379 ave        2379 max        2379 min
Histogram: 1 0 0 0 0 0 0 0 0 0
Neighs:          23146 ave       23146 max       23146 min
Histogram: 1 0 0 0 0 0 0 0 0 0

Total # of neighbors = 23146
Ave neighs/atom = 62.38814
Ave special neighs/atom = 6.1832884
Neighbor list builds = 0
Dangerous builds = 0

# Obtain new stress tensor

variable tmp equal pe
variable e1 equal ${tmp}
variable e1 equal 92.0360983936244
variable tmp equal press
variable p1 equal ${tmp}
variable p1 equal 5860.05785478925
variable tmp equal pxx
variable pxx1 equal ${tmp}
variable pxx1 equal 10355.7069397097
variable tmp equal pyy
variable pyy1 equal ${tmp}
variable pyy1 equal 5330.44019030293
variable tmp equal pzz
variable pzz1 equal ${tmp}
variable pzz1 equal 1894.0264343551
variable tmp equal pxy
variable pxy1 equal ${tmp}
variable pxy1 equal 859.424976790973
variable tmp equal pxz
variable pxz1 equal ${tmp}
variable pxz1 equal 1691.32213690978
variable tmp equal pyz
variable pyz1 equal ${tmp}
variable pyz1 equal 357.232831552516

# Compute elastic constant from pressure tensor

variable C1pos equal ${d1}
variable C1pos equal 29.7071846181735
variable C2pos equal ${d2}
variable C2pos equal 28.8164880149819
variable C3pos equal ${d3}
variable C3pos equal 73.786633116888
variable C4pos equal ${d4}
variable C4pos equal -0.95387875955867
variable C5pos equal ${d5}
variable C5pos equal 1.88954321872615
variable C6pos equal ${d6}
variable C6pos equal 2.32152394943774

# Combine positive and negative

variable C1${dir} equal 0.5*(${C1neg}+${C1pos})
variable C13 equal 0.5*(${C1neg}+${C1pos})
variable C13 equal 0.5*(33.811019510648+${C1pos})
variable C13 equal 0.5*(33.811019510648+29.7071846181735)
variable C2${dir} equal 0.5*(${C2neg}+${C2pos})
variable C23 equal 0.5*(${C2neg}+${C2pos})
variable C23 equal 0.5*(38.6408867010275+${C2pos})
variable C23 equal 0.5*(38.6408867010275+28.8164880149819)
variable C3${dir} equal 0.5*(${C3neg}+${C3pos})
variable C33 equal 0.5*(${C3neg}+${C3pos})
variable C33 equal 0.5*(94.3903764202035+${C3pos})
variable C33 equal 0.5*(94.3903764202035+73.786633116888)
variable C4${dir} equal 0.5*(${C4neg}+${C4pos})
variable C43 equal 0.5*(${C4neg}+${C4pos})
variable C43 equal 0.5*(0.727751630164285+${C4pos})
variable C43 equal 0.5*(0.727751630164285+-0.95387875955867)
variable C5${dir} equal 0.5*(${C5neg}+${C5pos})
variable C53 equal 0.5*(${C5neg}+${C5pos})
variable C53 equal 0.5*(2.07991021207375+${C5pos})
variable C53 equal 0.5*(2.07991021207375+1.88954321872615)
variable C6${dir} equal 0.5*(${C6neg}+${C6pos})
variable C63 equal 0.5*(${C6neg}+${C6pos})
variable C63 equal 0.5*(3.34498690069855+${C6pos})
variable C63 equal 0.5*(3.34498690069855+2.32152394943774)

# Delete dir to make sure it is not reused

variable dir delete

# uyz Perturbation

variable dir equal 4
include ./input/displace_333U-50C-14-vasp.mod
if "${dir} == 1" then    "variable len0 equal ${lx0}"
if "${dir} == 2" then    "variable len0 equal ${ly0}"
if "${dir} == 3" then    "variable len0 equal ${lz0}"
if "${dir} == 4" then    "variable len0 equal ${lz0}"
variable len0 equal ${lz0}
variable len0 equal 18.6428110037033
if "${dir} == 5" then    "variable len0 equal ${lz0}"
if "${dir} == 6" then    "variable len0 equal ${ly0}"

# Reset box and simulation parameters

clear
OMP_NUM_THREADS environment is not set. Defaulting to 1 thread.
  using 1 OpenMP thread(s) per MPI task
box tilt large

The 'box' command has been removed and will be ignored

read_restart restart_333U-50C-14-vasp.equil
Reading restart file ...
  restart file = 10 Sep 2025, LAMMPS = 10 Sep 2025
  restoring atom style full from restart
  triclinic box = (-0.0011285518 -0.00057742946 -0.0012760019) to (16.860868 12.610086 18.641535) with tilt (-8.8518366 0.45895283 0.20544912)
WARNING: Triclinic box skew is large. LAMMPS will run inefficiently. (src/domain.cpp:221)
  1 by 1 by 1 MPI processor grid
  restoring pair style lj/cut from restart
  restoring bond style harmonic from restart
  restoring angle style hybrid from restart
  restoring dihedral style harmonic from restart
  371 atoms
  396 bonds
  751 angles
  942 dihedrals
Finding 1-2 1-3 1-4 neighbors ...
  special bond factors lj:    0        0        1       
  special bond factors coul:  0        0        1       
     4 = max # of 1-2 neighbors
    10 = max # of 1-3 neighbors
    14 = max # of special neighbors
  special bonds CPU = 0.000 seconds
  read_restart CPU = 0.001 seconds
include ./input/angles_333U-50C-14-vasp.mod
angle_style hybrid fourier cosine/periodic
angle_coeff 1 fourier 32.417871        0.343737        0.374972        0.281246
angle_coeff 2 fourier 83.380072        0.343737        0.374972        0.281246
angle_coeff 3 fourier 221.735285        0.343737        0.374972        0.281246
angle_coeff 4 fourier 114.246973        0.343737        0.374972        0.281246
angle_coeff 5 fourier 157.882480        0.343737        0.374972        0.281246
angle_coeff 6 fourier 58.020602        0.343737        0.374972        0.281246
angle_coeff 7 fourier 90.420412        0.343737        0.374972        0.281246
angle_coeff 8 fourier 75.498766        0.343737        0.374972        0.281246
angle_coeff 9 cosine/periodic 88.853997              -1               3

# Negative deformation

variable delta equal -${up}*${len0}
variable delta equal -0.02*${len0}
variable delta equal -0.02*18.6428110037033
variable deltaxy equal -${up}*xy
variable deltaxy equal -0.02*xy
variable deltaxz equal -${up}*xz
variable deltaxz equal -0.02*xz
variable deltayz equal -${up}*yz
variable deltayz equal -0.02*yz
if "${dir} == 1" then    "change_box all x delta 0 ${delta} xy delta ${deltaxy} xz delta ${deltaxz} remap units box"
if "${dir} == 2" then    "change_box all y delta 0 ${delta} yz delta ${deltayz} remap units box"
if "${dir} == 3" then    "change_box all z delta 0 ${delta} remap units box"
if "${dir} == 4" then    "change_box all yz delta ${delta} remap units box"
change_box all yz delta ${delta} remap units box
change_box all yz delta -0.372856220074066 remap units box
Changing box ...
WARNING: Triclinic box skew is large. LAMMPS will run inefficiently. (src/domain.cpp:221)
  triclinic box = (-0.0011285518 -0.00057742946 -0.0012760019) to (16.860868 12.610086 18.641535) with tilt (-8.8518366 0.45895283 -0.1674071)
if "${dir} == 5" then    "change_box all xz delta ${delta} remap units box"
if "${dir} == 6" then    "change_box all xy delta ${delta} remap units box"

# Relax atoms positions

minimize ${etol} ${ftol} ${maxiter} ${maxeval}
minimize 0 ${ftol} ${maxiter} ${maxeval}
minimize 0 1e-10 ${maxiter} ${maxeval}
minimize 0 1e-10 100000 ${maxeval}
minimize 0 1e-10 100000 100000
Generated 6 of 6 mixed pair_coeff terms from arithmetic mixing rule
Neighbor list info ...
  update: every = 1 steps, delay = 0 steps, check = yes
  max neighbors/atom: 2000, page size: 100000
  master list distance cutoff = 7
  ghost atom cutoff = 7
  binsize = 3.5, bins = 8 4 6
  1 neighbor lists, perpetual/occasional/extra = 1 0 0
  (1) pair lj/cut, perpetual
      attributes: half, newton on
      pair build: half/bin/newton/tri
      stencil: half/bin/3d/tri
      bin: standard
WARNING: Inconsistent image flags
For more information see https://docs.lammps.org/err0027 (src/domain.cpp:1052)
Per MPI rank memory allocation (min/avg/max) = 19.52 | 19.52 | 19.52 Mbytes
   Step          Temp          E_pair         E_mol          TotEng         Press     
       128   0             -412.91904      533.26356      120.34452      14087.226    
       169   0             -412.46526      516.83683      104.37157      15390.373    
Loop time of 0.0259228 on 1 procs for 41 steps with 371 atoms

100.0% CPU use with 1 MPI tasks x 1 OpenMP threads

Minimization stats:
  Stopping criterion = linesearch alpha is zero
  Energy initial, next-to-last, final = 
      120.344520768619   104.371570081016   104.371570081016
  Force two-norm initial, final = 124.33699 7.5440288
  Force max component initial, final = 14.562254 0.83976651
  Final line search alpha, max atom move = 2.135519e-10 1.7933373e-10
  Iterations, force evaluations = 41 133

MPI task timing breakdown:
Section |  min time  |  avg time  |  max time  |%varavg| %total
---------------------------------------------------------------
Pair    | 0.019668   | 0.019668   | 0.019668   |   0.0 | 75.87
Bond    | 0.0051301  | 0.0051301  | 0.0051301  |   0.0 | 19.79
Neigh   | 0          | 0          | 0          |   0.0 |  0.00
Comm    | 0.00062658 | 0.00062658 | 0.00062658 |   0.0 |  2.42
Output  | 0          | 0          | 0          |   0.0 |  0.00
Modify  | 0          | 0          | 0          |   0.0 |  0.00
Other   |            | 0.0004979  |            |       |  1.92

Nlocal:            371 ave         371 max         371 min
Histogram: 1 0 0 0 0 0 0 0 0 0
Nghost:           2413 ave        2413 max        2413 min
Histogram: 1 0 0 0 0 0 0 0 0 0
Neighs:          23610 ave       23610 max       23610 min
Histogram: 1 0 0 0 0 0 0 0 0 0

Total # of neighbors = 23610
Ave neighs/atom = 63.638814
Ave special neighs/atom = 6.1832884
Neighbor list builds = 0
Dangerous builds = 0

# Obtain new stress tensor

variable tmp equal pxx
variable pxx1 equal ${tmp}
variable pxx1 equal 16000.2284105543
variable tmp equal pyy
variable pyy1 equal ${tmp}
variable pyy1 equal 11883.7287941339
variable tmp equal pzz
variable pzz1 equal ${tmp}
variable pzz1 equal 18287.1624785956
variable tmp equal pxy
variable pxy1 equal ${tmp}
variable pxy1 equal 1477.42313284779
variable tmp equal pxz
variable pxz1 equal ${tmp}
variable pxz1 equal 1905.50080205446
variable tmp equal pyz
variable pyz1 equal ${tmp}
variable pyz1 equal 5620.44258501478

# Compute elastic constant from pressure tensor

variable C1neg equal ${d1}
variable C1neg equal -1.4845772639505
variable C2neg equal ${d2}
variable C2neg equal 3.949955004173
variable C3neg equal ${d3}
variable C3neg equal 8.1790471043145
variable C4neg equal ${d4}
variable C4neg equal 27.26992752687
variable C5neg equal ${d5}
variable C5neg equal -0.818649893002751
variable C6neg equal ${d6}
variable C6neg equal 0.768466830846349

# Reset box and simulation parameters

clear
OMP_NUM_THREADS environment is not set. Defaulting to 1 thread.
  using 1 OpenMP thread(s) per MPI task
box tilt large

The 'box' command has been removed and will be ignored

read_restart restart_333U-50C-14-vasp.equil
Reading restart file ...
  restart file = 10 Sep 2025, LAMMPS = 10 Sep 2025
  restoring atom style full from restart
  triclinic box = (-0.0011285518 -0.00057742946 -0.0012760019) to (16.860868 12.610086 18.641535) with tilt (-8.8518366 0.45895283 0.20544912)
WARNING: Triclinic box skew is large. LAMMPS will run inefficiently. (src/domain.cpp:221)
  1 by 1 by 1 MPI processor grid
  restoring pair style lj/cut from restart
  restoring bond style harmonic from restart
  restoring angle style hybrid from restart
  restoring dihedral style harmonic from restart
  371 atoms
  396 bonds
  751 angles
  942 dihedrals
Finding 1-2 1-3 1-4 neighbors ...
  special bond factors lj:    0        0        1       
  special bond factors coul:  0        0        1       
     4 = max # of 1-2 neighbors
    10 = max # of 1-3 neighbors
    14 = max # of special neighbors
  special bonds CPU = 0.000 seconds
  read_restart CPU = 0.001 seconds
include ./input/angles_333U-50C-14-vasp.mod
angle_style hybrid fourier cosine/periodic
angle_coeff 1 fourier 32.417871        0.343737        0.374972        0.281246
angle_coeff 2 fourier 83.380072        0.343737        0.374972        0.281246
angle_coeff 3 fourier 221.735285        0.343737        0.374972        0.281246
angle_coeff 4 fourier 114.246973        0.343737        0.374972        0.281246
angle_coeff 5 fourier 157.882480        0.343737        0.374972        0.281246
angle_coeff 6 fourier 58.020602        0.343737        0.374972        0.281246
angle_coeff 7 fourier 90.420412        0.343737        0.374972        0.281246
angle_coeff 8 fourier 75.498766        0.343737        0.374972        0.281246
angle_coeff 9 cosine/periodic 88.853997              -1               3

# Positive deformation

variable delta equal ${up}*${len0}
variable delta equal 0.02*${len0}
variable delta equal 0.02*18.6428110037033
variable deltaxy equal ${up}*xy
variable deltaxy equal 0.02*xy
variable deltaxz equal ${up}*xz
variable deltaxz equal 0.02*xz
variable deltayz equal ${up}*yz
variable deltayz equal 0.02*yz
if "${dir} == 1" then    "change_box all x delta 0 ${delta} xy delta ${deltaxy} xz delta ${deltaxz} remap units box"
if "${dir} == 2" then    "change_box all y delta 0 ${delta} yz delta ${deltayz} remap units box"
if "${dir} == 3" then    "change_box all z delta 0 ${delta} remap units box"
if "${dir} == 4" then    "change_box all yz delta ${delta} remap units box"
change_box all yz delta ${delta} remap units box
change_box all yz delta 0.372856220074066 remap units box
Changing box ...
WARNING: Triclinic box skew is large. LAMMPS will run inefficiently. (src/domain.cpp:221)
  triclinic box = (-0.0011285518 -0.00057742946 -0.0012760019) to (16.860868 12.610086 18.641535) with tilt (-8.8518366 0.45895283 0.57830534)
if "${dir} == 5" then    "change_box all xz delta ${delta} remap units box"
if "${dir} == 6" then    "change_box all xy delta ${delta} remap units box"

# Relax atoms positions

minimize ${etol} ${ftol} ${maxiter} ${maxeval}
minimize 0 ${ftol} ${maxiter} ${maxeval}
minimize 0 1e-10 ${maxiter} ${maxeval}
minimize 0 1e-10 100000 ${maxeval}
minimize 0 1e-10 100000 100000
Generated 6 of 6 mixed pair_coeff terms from arithmetic mixing rule
Neighbor list info ...
  update: every = 1 steps, delay = 0 steps, check = yes
  max neighbors/atom: 2000, page size: 100000
  master list distance cutoff = 7
  ghost atom cutoff = 7
  binsize = 3.5, bins = 8 4 6
  1 neighbor lists, perpetual/occasional/extra = 1 0 0
  (1) pair lj/cut, perpetual
      attributes: half, newton on
      pair build: half/bin/newton/tri
      stencil: half/bin/3d/tri
      bin: standard
WARNING: Inconsistent image flags
For more information see https://docs.lammps.org/err0027 (src/domain.cpp:1052)
Per MPI rank memory allocation (min/avg/max) = 19.52 | 19.52 | 19.52 Mbytes
   Step          Temp          E_pair         E_mol          TotEng         Press     
       128   0             -411.55702      530.90264      119.34562      14979.212    
       154   0             -415.62749      519.81102      104.18353      15275.065    
Loop time of 0.0205003 on 1 procs for 26 steps with 371 atoms

100.0% CPU use with 1 MPI tasks x 1 OpenMP threads

Minimization stats:
  Stopping criterion = linesearch alpha is zero
  Energy initial, next-to-last, final = 
       119.34561792679   104.183529075719   104.183529075719
  Force two-norm initial, final = 126.48772 12.560257
  Force max component initial, final = 13.736737 1.7860084
  Final line search alpha, max atom move = 7.4238751e-11 1.3259103e-10
  Iterations, force evaluations = 26 105

MPI task timing breakdown:
Section |  min time  |  avg time  |  max time  |%varavg| %total
---------------------------------------------------------------
Pair    | 0.015679   | 0.015679   | 0.015679   |   0.0 | 76.48
Bond    | 0.0039638  | 0.0039638  | 0.0039638  |   0.0 | 19.34
Neigh   | 0          | 0          | 0          |   0.0 |  0.00
Comm    | 0.00047766 | 0.00047766 | 0.00047766 |   0.0 |  2.33
Output  | 0          | 0          | 0          |   0.0 |  0.00
Modify  | 0          | 0          | 0          |   0.0 |  0.00
Other   |            | 0.0003795  |            |       |  1.85

Nlocal:            371 ave         371 max         371 min
Histogram: 1 0 0 0 0 0 0 0 0 0
Nghost:           2413 ave        2413 max        2413 min
Histogram: 1 0 0 0 0 0 0 0 0 0
Neighs:          23617 ave       23617 max       23617 min
Histogram: 1 0 0 0 0 0 0 0 0 0

Total # of neighbors = 23617
Ave neighs/atom = 63.657682
Ave special neighs/atom = 6.1832884
Neighbor list builds = 0
Dangerous builds = 0

# Obtain new stress tensor

variable tmp equal pe
variable e1 equal ${tmp}
variable e1 equal 104.183529075719
variable tmp equal press
variable p1 equal ${tmp}
variable p1 equal 15275.0652574806
variable tmp equal pxx
variable pxx1 equal ${tmp}
variable pxx1 equal 17563.63405374
variable tmp equal pyy
variable pyy1 equal ${tmp}
variable pyy1 equal 10676.4998397982
variable tmp equal pzz
variable pzz1 equal ${tmp}
variable pzz1 equal 17585.0618789036
variable tmp equal pxy
variable pxy1 equal ${tmp}
variable pxy1 equal 1496.88586496475
variable tmp equal pxz
variable pxz1 equal ${tmp}
variable pxz1 equal 2036.48823673208
variable tmp equal pyz
variable pyz1 equal ${tmp}
variable pyz1 equal -4577.5700970456

# Compute elastic constant from pressure tensor

variable C1pos equal ${d1}
variable C1pos equal -6.332450951978
variable C2pos equal ${d2}
variable C2pos equal 2.0861897675055
variable C3pos equal ${d3}
variable C3pos equal -4.66854410585451
variable C4pos equal ${d4}
variable C4pos equal 23.7201358834319
variable C5pos equal ${d5}
variable C5pos equal 0.163712719614651
variable C6pos equal ${d6}
variable C6pos equal -0.86578049143115

# Combine positive and negative

variable C1${dir} equal 0.5*(${C1neg}+${C1pos})
variable C14 equal 0.5*(${C1neg}+${C1pos})
variable C14 equal 0.5*(-1.4845772639505+${C1pos})
variable C14 equal 0.5*(-1.4845772639505+-6.332450951978)
variable C2${dir} equal 0.5*(${C2neg}+${C2pos})
variable C24 equal 0.5*(${C2neg}+${C2pos})
variable C24 equal 0.5*(3.949955004173+${C2pos})
variable C24 equal 0.5*(3.949955004173+2.0861897675055)
variable C3${dir} equal 0.5*(${C3neg}+${C3pos})
variable C34 equal 0.5*(${C3neg}+${C3pos})
variable C34 equal 0.5*(8.1790471043145+${C3pos})
variable C34 equal 0.5*(8.1790471043145+-4.66854410585451)
variable C4${dir} equal 0.5*(${C4neg}+${C4pos})
variable C44 equal 0.5*(${C4neg}+${C4pos})
variable C44 equal 0.5*(27.26992752687+${C4pos})
variable C44 equal 0.5*(27.26992752687+23.7201358834319)
variable C5${dir} equal 0.5*(${C5neg}+${C5pos})
variable C54 equal 0.5*(${C5neg}+${C5pos})
variable C54 equal 0.5*(-0.818649893002751+${C5pos})
variable C54 equal 0.5*(-0.818649893002751+0.163712719614651)
variable C6${dir} equal 0.5*(${C6neg}+${C6pos})
variable C64 equal 0.5*(${C6neg}+${C6pos})
variable C64 equal 0.5*(0.768466830846349+${C6pos})
variable C64 equal 0.5*(0.768466830846349+-0.86578049143115)

# Delete dir to make sure it is not reused

variable dir delete

# uxz Perturbation

variable dir equal 5
include ./input/displace_333U-50C-14-vasp.mod
if "${dir} == 1" then    "variable len0 equal ${lx0}"
if "${dir} == 2" then    "variable len0 equal ${ly0}"
if "${dir} == 3" then    "variable len0 equal ${lz0}"
if "${dir} == 4" then    "variable len0 equal ${lz0}"
if "${dir} == 5" then    "variable len0 equal ${lz0}"
variable len0 equal ${lz0}
variable len0 equal 18.6428110037033
if "${dir} == 6" then    "variable len0 equal ${ly0}"

# Reset box and simulation parameters

clear
OMP_NUM_THREADS environment is not set. Defaulting to 1 thread.
  using 1 OpenMP thread(s) per MPI task
box tilt large

The 'box' command has been removed and will be ignored

read_restart restart_333U-50C-14-vasp.equil
Reading restart file ...
  restart file = 10 Sep 2025, LAMMPS = 10 Sep 2025
  restoring atom style full from restart
  triclinic box = (-0.0011285518 -0.00057742946 -0.0012760019) to (16.860868 12.610086 18.641535) with tilt (-8.8518366 0.45895283 0.20544912)
WARNING: Triclinic box skew is large. LAMMPS will run inefficiently. (src/domain.cpp:221)
  1 by 1 by 1 MPI processor grid
  restoring pair style lj/cut from restart
  restoring bond style harmonic from restart
  restoring angle style hybrid from restart
  restoring dihedral style harmonic from restart
  371 atoms
  396 bonds
  751 angles
  942 dihedrals
Finding 1-2 1-3 1-4 neighbors ...
  special bond factors lj:    0        0        1       
  special bond factors coul:  0        0        1       
     4 = max # of 1-2 neighbors
    10 = max # of 1-3 neighbors
    14 = max # of special neighbors
  special bonds CPU = 0.000 seconds
  read_restart CPU = 0.001 seconds
include ./input/angles_333U-50C-14-vasp.mod
angle_style hybrid fourier cosine/periodic
angle_coeff 1 fourier 32.417871        0.343737        0.374972        0.281246
angle_coeff 2 fourier 83.380072        0.343737        0.374972        0.281246
angle_coeff 3 fourier 221.735285        0.343737        0.374972        0.281246
angle_coeff 4 fourier 114.246973        0.343737        0.374972        0.281246
angle_coeff 5 fourier 157.882480        0.343737        0.374972        0.281246
angle_coeff 6 fourier 58.020602        0.343737        0.374972        0.281246
angle_coeff 7 fourier 90.420412        0.343737        0.374972        0.281246
angle_coeff 8 fourier 75.498766        0.343737        0.374972        0.281246
angle_coeff 9 cosine/periodic 88.853997              -1               3

# Negative deformation

variable delta equal -${up}*${len0}
variable delta equal -0.02*${len0}
variable delta equal -0.02*18.6428110037033
variable deltaxy equal -${up}*xy
variable deltaxy equal -0.02*xy
variable deltaxz equal -${up}*xz
variable deltaxz equal -0.02*xz
variable deltayz equal -${up}*yz
variable deltayz equal -0.02*yz
if "${dir} == 1" then    "change_box all x delta 0 ${delta} xy delta ${deltaxy} xz delta ${deltaxz} remap units box"
if "${dir} == 2" then    "change_box all y delta 0 ${delta} yz delta ${deltayz} remap units box"
if "${dir} == 3" then    "change_box all z delta 0 ${delta} remap units box"
if "${dir} == 4" then    "change_box all yz delta ${delta} remap units box"
if "${dir} == 5" then    "change_box all xz delta ${delta} remap units box"
change_box all xz delta ${delta} remap units box
change_box all xz delta -0.372856220074066 remap units box
Changing box ...
WARNING: Triclinic box skew is large. LAMMPS will run inefficiently. (src/domain.cpp:221)
  triclinic box = (-0.0011285518 -0.00057742946 -0.0012760019) to (16.860868 12.610086 18.641535) with tilt (-8.8518366 0.086096606 0.20544912)
if "${dir} == 6" then    "change_box all xy delta ${delta} remap units box"

# Relax atoms positions

minimize ${etol} ${ftol} ${maxiter} ${maxeval}
minimize 0 ${ftol} ${maxiter} ${maxeval}
minimize 0 1e-10 ${maxiter} ${maxeval}
minimize 0 1e-10 100000 ${maxeval}
minimize 0 1e-10 100000 100000
[...]
angle_coeff 7 fourier 90.420412        0.343737        0.374972        0.281246
angle_coeff 8 fourier 75.498766        0.343737        0.374972        0.281246
angle_coeff 9 cosine/periodic 88.853997              -1               3

# Negative deformation

variable delta equal -${up}*${len0}
variable delta equal -0.02*${len0}
variable delta equal -0.02*12.6106638589229
variable deltaxy equal -${up}*xy
variable deltaxy equal -0.02*xy
variable deltaxz equal -${up}*xz
variable deltaxz equal -0.02*xz
variable deltayz equal -${up}*yz
variable deltayz equal -0.02*yz
if "${dir} == 1" then    "change_box all x delta 0 ${delta} xy delta ${deltaxy} xz delta ${deltaxz} remap units box"
if "${dir} == 2" then    "change_box all y delta 0 ${delta} yz delta ${deltayz} remap units box"
if "${dir} == 3" then    "change_box all z delta 0 ${delta} remap units box"
if "${dir} == 4" then    "change_box all yz delta ${delta} remap units box"
if "${dir} == 5" then    "change_box all xz delta ${delta} remap units box"
if "${dir} == 6" then    "change_box all xy delta ${delta} remap units box"
change_box all xy delta ${delta} remap units box
change_box all xy delta -0.252213277178458 remap units box
Changing box ...
WARNING: Triclinic box skew is large. LAMMPS will run inefficiently. (src/domain.cpp:221)
  triclinic box = (-0.0011285518 -0.00057742946 -0.0012760019) to (16.860868 12.610086 18.641535) with tilt (-9.1040499 0.45895283 0.20544912)

# Relax atoms positions

minimize ${etol} ${ftol} ${maxiter} ${maxeval}
minimize 0 ${ftol} ${maxiter} ${maxeval}
minimize 0 1e-10 ${maxiter} ${maxeval}
minimize 0 1e-10 100000 ${maxeval}
minimize 0 1e-10 100000 100000
Generated 6 of 6 mixed pair_coeff terms from arithmetic mixing rule
Neighbor list info ...
  update: every = 1 steps, delay = 0 steps, check = yes
  max neighbors/atom: 2000, page size: 100000
  master list distance cutoff = 7
  ghost atom cutoff = 7
  binsize = 3.5, bins = 8 4 6
  1 neighbor lists, perpetual/occasional/extra = 1 0 0
  (1) pair lj/cut, perpetual
      attributes: half, newton on
      pair build: half/bin/newton/tri
      stencil: half/bin/3d/tri
      bin: standard
WARNING: Inconsistent image flags
For more information see https://docs.lammps.org/err0027 (src/domain.cpp:1052)
Per MPI rank memory allocation (min/avg/max) = 19.52 | 19.52 | 19.52 Mbytes
   Step          Temp          E_pair         E_mol          TotEng         Press     
       128   0             -411.12298      532.00043      120.87745      14907.026    
       146   0             -414.68492      521.80043      107.11551      15594.799    
Loop time of 0.0176028 on 1 procs for 18 steps with 371 atoms

99.6% CPU use with 1 MPI tasks x 1 OpenMP threads

Minimization stats:
  Stopping criterion = linesearch alpha is zero
  Energy initial, next-to-last, final = 
      120.877449372214   107.115509203333   107.115509203333
  Force two-norm initial, final = 130.56018 16.974975
  Force max component initial, final = 14.124251 2.1874447
  Final line search alpha, max atom move = 3.9600365e-11 8.6623609e-11
  Iterations, force evaluations = 18 91

MPI task timing breakdown:
Section |  min time  |  avg time  |  max time  |%varavg| %total
---------------------------------------------------------------
Pair    | 0.013437   | 0.013437   | 0.013437   |   0.0 | 76.34
Bond    | 0.0034032  | 0.0034032  | 0.0034032  |   0.0 | 19.33
Neigh   | 0          | 0          | 0          |   0.0 |  0.00
Comm    | 0.00043212 | 0.00043212 | 0.00043212 |   0.0 |  2.45
Output  | 0          | 0          | 0          |   0.0 |  0.00
Modify  | 0          | 0          | 0          |   0.0 |  0.00
Other   |            | 0.0003303  |            |       |  1.88

Nlocal:            371 ave         371 max         371 min
Histogram: 1 0 0 0 0 0 0 0 0 0
Nghost:           2431 ave        2431 max        2431 min
Histogram: 1 0 0 0 0 0 0 0 0 0
Neighs:          23609 ave       23609 max       23609 min
Histogram: 1 0 0 0 0 0 0 0 0 0

Total # of neighbors = 23609
Ave neighs/atom = 63.636119
Ave special neighs/atom = 6.1832884
Neighbor list builds = 0
Dangerous builds = 0

# Obtain new stress tensor

variable tmp equal pxx
variable pxx1 equal ${tmp}
variable pxx1 equal 16523.2801817455
variable tmp equal pyy
variable pyy1 equal ${tmp}
variable pyy1 equal 12236.0654066277
variable tmp equal pzz
variable pzz1 equal ${tmp}
variable pzz1 equal 18025.0500555978
variable tmp equal pxy
variable pxy1 equal ${tmp}
variable pxy1 equal 6143.12358975026
variable tmp equal pxz
variable pxz1 equal ${tmp}
variable pxz1 equal 1483.16364058305
variable tmp equal pyz
variable pyz1 equal ${tmp}
variable pyz1 equal 401.458829839334

# Compute elastic constant from pressure tensor

variable C1neg equal ${d1}
variable C1neg equal 1.1306815920055
variable C2neg equal ${d2}
variable C2neg equal 5.711638066642
variable C3neg equal ${d3}
variable C3neg equal 6.8684849893255
variable C4neg equal ${d4}
variable C4neg equal 1.17500875099276
variable C5neg equal ${d5}
variable C5neg equal -2.9303357003598
variable C6neg equal ${d6}
variable C6neg equal 24.0969691153587

# Reset box and simulation parameters

clear
OMP_NUM_THREADS environment is not set. Defaulting to 1 thread.
  using 1 OpenMP thread(s) per MPI task
box tilt large

The 'box' command has been removed and will be ignored

read_restart restart_333U-50C-14-vasp.equil
Reading restart file ...
  restart file = 10 Sep 2025, LAMMPS = 10 Sep 2025
  restoring atom style full from restart
  triclinic box = (-0.0011285518 -0.00057742946 -0.0012760019) to (16.860868 12.610086 18.641535) with tilt (-8.8518366 0.45895283 0.20544912)
WARNING: Triclinic box skew is large. LAMMPS will run inefficiently. (src/domain.cpp:221)
  1 by 1 by 1 MPI processor grid
  restoring pair style lj/cut from restart
  restoring bond style harmonic from restart
  restoring angle style hybrid from restart
  restoring dihedral style harmonic from restart
  371 atoms
  396 bonds
  751 angles
  942 dihedrals
Finding 1-2 1-3 1-4 neighbors ...
  special bond factors lj:    0        0        1       
  special bond factors coul:  0        0        1       
     4 = max # of 1-2 neighbors
    10 = max # of 1-3 neighbors
    14 = max # of special neighbors
  special bonds CPU = 0.000 seconds
  read_restart CPU = 0.001 seconds
include ./input/angles_333U-50C-14-vasp.mod
angle_style hybrid fourier cosine/periodic
angle_coeff 1 fourier 32.417871        0.343737        0.374972        0.281246
angle_coeff 2 fourier 83.380072        0.343737        0.374972        0.281246
angle_coeff 3 fourier 221.735285        0.343737        0.374972        0.281246
angle_coeff 4 fourier 114.246973        0.343737        0.374972        0.281246
angle_coeff 5 fourier 157.882480        0.343737        0.374972        0.281246
angle_coeff 6 fourier 58.020602        0.343737        0.374972        0.281246
angle_coeff 7 fourier 90.420412        0.343737        0.374972        0.281246
angle_coeff 8 fourier 75.498766        0.343737        0.374972        0.281246
angle_coeff 9 cosine/periodic 88.853997              -1               3

# Positive deformation

variable delta equal ${up}*${len0}
variable delta equal 0.02*${len0}
variable delta equal 0.02*12.6106638589229
variable deltaxy equal ${up}*xy
variable deltaxy equal 0.02*xy
variable deltaxz equal ${up}*xz
variable deltaxz equal 0.02*xz
variable deltayz equal ${up}*yz
variable deltayz equal 0.02*yz
if "${dir} == 1" then    "change_box all x delta 0 ${delta} xy delta ${deltaxy} xz delta ${deltaxz} remap units box"
if "${dir} == 2" then    "change_box all y delta 0 ${delta} yz delta ${deltayz} remap units box"
if "${dir} == 3" then    "change_box all z delta 0 ${delta} remap units box"
if "${dir} == 4" then    "change_box all yz delta ${delta} remap units box"
if "${dir} == 5" then    "change_box all xz delta ${delta} remap units box"
if "${dir} == 6" then    "change_box all xy delta ${delta} remap units box"
change_box all xy delta ${delta} remap units box
change_box all xy delta 0.252213277178458 remap units box
Changing box ...
WARNING: Triclinic box skew is large. LAMMPS will run inefficiently. (src/domain.cpp:221)
  triclinic box = (-0.0011285518 -0.00057742946 -0.0012760019) to (16.860868 12.610086 18.641535) with tilt (-8.5996234 0.45895283 0.20544912)

# Relax atoms positions

minimize ${etol} ${ftol} ${maxiter} ${maxeval}
minimize 0 ${ftol} ${maxiter} ${maxeval}
minimize 0 1e-10 ${maxiter} ${maxeval}
minimize 0 1e-10 100000 ${maxeval}
minimize 0 1e-10 100000 100000
Generated 6 of 6 mixed pair_coeff terms from arithmetic mixing rule
Neighbor list info ...
  update: every = 1 steps, delay = 0 steps, check = yes
  max neighbors/atom: 2000, page size: 100000
  master list distance cutoff = 7
  ghost atom cutoff = 7
  binsize = 3.5, bins = 8 4 6
  1 neighbor lists, perpetual/occasional/extra = 1 0 0
  (1) pair lj/cut, perpetual
      attributes: half, newton on
      pair build: half/bin/newton/tri
      stencil: half/bin/3d/tri
      bin: standard
WARNING: Inconsistent image flags
For more information see https://docs.lammps.org/err0027 (src/domain.cpp:1052)
Per MPI rank memory allocation (min/avg/max) = 19.52 | 19.52 | 19.52 Mbytes
   Step          Temp          E_pair         E_mol          TotEng         Press     
       128   0             -413.17151      531.6623       118.49079      14164.378    
       157   0             -415.88742      517.82559      101.93817      14900.714    
Loop time of 0.0215947 on 1 procs for 29 steps with 371 atoms

100.0% CPU use with 1 MPI tasks x 1 OpenMP threads

Minimization stats:
  Stopping criterion = linesearch alpha is zero
  Energy initial, next-to-last, final = 
       118.49078639412   101.938171288569   101.938171288569
  Force two-norm initial, final = 131.24052 11.097922
  Force max component initial, final = 14.879656 1.2077346
  Final line search alpha, max atom move = 8.2178886e-11 9.9250282e-11
  Iterations, force evaluations = 29 111

MPI task timing breakdown:
Section |  min time  |  avg time  |  max time  |%varavg| %total
---------------------------------------------------------------
Pair    | 0.016397   | 0.016397   | 0.016397   |   0.0 | 75.93
Bond    | 0.0042431  | 0.0042431  | 0.0042431  |   0.0 | 19.65
Neigh   | 0          | 0          | 0          |   0.0 |  0.00
Comm    | 0.00055301 | 0.00055301 | 0.00055301 |   0.0 |  2.56
Output  | 0          | 0          | 0          |   0.0 |  0.00
Modify  | 0          | 0          | 0          |   0.0 |  0.00
Other   |            | 0.0004014  |            |       |  1.86

Nlocal:            371 ave         371 max         371 min
Histogram: 1 0 0 0 0 0 0 0 0 0
Nghost:           2401 ave        2401 max        2401 min
Histogram: 1 0 0 0 0 0 0 0 0 0
Neighs:          23584 ave       23584 max       23584 min
Histogram: 1 0 0 0 0 0 0 0 0 0

Total # of neighbors = 23584
Ave neighs/atom = 63.568733
Ave special neighs/atom = 6.1832884
Neighbor list builds = 0
Dangerous builds = 0

# Obtain new stress tensor

variable tmp equal pe
variable e1 equal ${tmp}
variable e1 equal 101.938171288569
variable tmp equal press
variable p1 equal ${tmp}
variable p1 equal 14900.7138492155
variable tmp equal pxx
variable pxx1 equal ${tmp}
variable pxx1 equal 16744.4155802637
variable tmp equal pyy
variable pyy1 equal ${tmp}
variable pyy1 equal 10545.184148673
variable tmp equal pzz
variable pzz1 equal ${tmp}
variable pzz1 equal 17412.5418187099
variable tmp equal pxy
variable pxy1 equal ${tmp}
variable pxy1 equal -2928.51345560244
variable tmp equal pxz
variable pxz1 equal ${tmp}
variable pxz1 equal 2893.3506241709
variable tmp equal pyz
variable pyz1 equal ${tmp}
variable pyz1 equal 659.918197642263

# Compute elastic constant from pressure tensor

variable C1pos equal ${d1}
variable C1pos equal -2.2363585845965
variable C2pos equal ${d2}
variable C2pos equal 2.7427682231315
variable C3pos equal ${d3}
variable C3pos equal -3.80594380488599
variable C4pos equal ${d4}
variable C4pos equal -2.4673055900074
variable C5pos equal ${d5}
variable C5pos equal -4.12059921757945
variable C6pos equal ${d6}
variable C6pos equal 21.2612161114048

# Combine positive and negative

variable C1${dir} equal 0.5*(${C1neg}+${C1pos})
variable C16 equal 0.5*(${C1neg}+${C1pos})
variable C16 equal 0.5*(1.1306815920055+${C1pos})
variable C16 equal 0.5*(1.1306815920055+-2.2363585845965)
variable C2${dir} equal 0.5*(${C2neg}+${C2pos})
variable C26 equal 0.5*(${C2neg}+${C2pos})
variable C26 equal 0.5*(5.711638066642+${C2pos})
variable C26 equal 0.5*(5.711638066642+2.7427682231315)
variable C3${dir} equal 0.5*(${C3neg}+${C3pos})
variable C36 equal 0.5*(${C3neg}+${C3pos})
variable C36 equal 0.5*(6.8684849893255+${C3pos})
variable C36 equal 0.5*(6.8684849893255+-3.80594380488599)
variable C4${dir} equal 0.5*(${C4neg}+${C4pos})
variable C46 equal 0.5*(${C4neg}+${C4pos})
variable C46 equal 0.5*(1.17500875099276+${C4pos})
variable C46 equal 0.5*(1.17500875099276+-2.4673055900074)
variable C5${dir} equal 0.5*(${C5neg}+${C5pos})
variable C56 equal 0.5*(${C5neg}+${C5pos})
variable C56 equal 0.5*(-2.9303357003598+${C5pos})
variable C56 equal 0.5*(-2.9303357003598+-4.12059921757945)
variable C6${dir} equal 0.5*(${C6neg}+${C6pos})
variable C66 equal 0.5*(${C6neg}+${C6pos})
variable C66 equal 0.5*(24.0969691153587+${C6pos})
variable C66 equal 0.5*(24.0969691153587+21.2612161114048)

# Delete dir to make sure it is not reused

variable dir delete

# Output final values

variable C11all equal ${C11}
variable C11all equal 64.9011149318266
variable C22all equal ${C22}
variable C22all equal 69.8198873061239
variable C33all equal ${C33}
variable C33all equal 84.0885047685457

variable C12all equal 0.5*(${C12}+${C21})
variable C12all equal 0.5*(28.7524365238008+${C21})
variable C12all equal 0.5*(28.7524365238008+27.0548031706569)
variable C13all equal 0.5*(${C13}+${C31})
variable C13all equal 0.5*(31.7591020644108+${C31})
variable C13all equal 0.5*(31.7591020644108+32.2977427103215)
variable C23all equal 0.5*(${C23}+${C32})
variable C23all equal 0.5*(33.7286873580047+${C32})
variable C23all equal 0.5*(33.7286873580047+33.4818325763005)

variable C44all equal ${C44}
variable C44all equal 25.495031705151
variable C55all equal ${C55}
variable C55all equal 23.0520066927035
variable C66all equal ${C66}
variable C66all equal 22.6790926133817

variable C14all equal 0.5*(${C14}+${C41})
variable C14all equal 0.5*(-3.90851410796425+${C41})
variable C14all equal 0.5*(-3.90851410796425+-2.87660879472824)
variable C15all equal 0.5*(${C15}+${C51})
variable C15all equal 0.5*(1.432161494038+${C51})
variable C15all equal 0.5*(1.432161494038+2.04814928426807)
variable C16all equal 0.5*(${C16}+${C61})
variable C16all equal 0.5*(-0.5528384962955+${C61})
variable C16all equal 0.5*(-0.5528384962955+0.69433120393625)

variable C24all equal 0.5*(${C24}+${C42})
variable C24all equal 0.5*(3.01807238583925+${C42})
variable C24all equal 0.5*(3.01807238583925+1.41144184869177)
variable C25all equal 0.5*(${C25}+${C52})
variable C25all equal 0.5*(0.763509398467752+${C52})
variable C25all equal 0.5*(0.763509398467752+0.557459197330126)
variable C26all equal 0.5*(${C26}+${C62})
variable C26all equal 0.5*(4.22720314488675+${C62})
variable C26all equal 0.5*(4.22720314488675+4.0512339761266)

variable C34all equal 0.5*(${C34}+${C43})
variable C34all equal 0.5*(1.75525149923+${C43})
variable C34all equal 0.5*(1.75525149923+-0.113063564697192)
variable C35all equal 0.5*(${C35}+${C53})
variable C35all equal 0.5*(2.39439525705275+${C53})
variable C35all equal 0.5*(2.39439525705275+1.98472671539995)
variable C36all equal 0.5*(${C36}+${C63})
variable C36all equal 0.5*(1.53127059221976+${C63})
variable C36all equal 0.5*(1.53127059221976+2.83325542506814)

variable C45all equal 0.5*(${C45}+${C54})
variable C45all equal 0.5*(-0.693377257639355+${C54})
variable C45all equal 0.5*(-0.693377257639355+-0.32746858669405)
variable C46all equal 0.5*(${C46}+${C64})
variable C46all equal 0.5*(-0.64614841950732+${C64})
variable C46all equal 0.5*(-0.64614841950732+-0.0486568302924005)
variable C56all equal 0.5*(${C56}+${C65})
variable C56all equal 0.5*(-3.52546745896962+${C65})
variable C56all equal 0.5*(-3.52546745896962+-3.14563848535072)

# Average moduli for cubic crystals

variable C11cubic equal (${C11all}+${C22all}+${C33all})/3.0
variable C11cubic equal (64.9011149318266+${C22all}+${C33all})/3.0
variable C11cubic equal (64.9011149318266+69.8198873061239+${C33all})/3.0
variable C11cubic equal (64.9011149318266+69.8198873061239+84.0885047685457)/3.0
variable C12cubic equal (${C12all}+${C13all}+${C23all})/3.0
variable C12cubic equal (27.9036198472288+${C13all}+${C23all})/3.0
variable C12cubic equal (27.9036198472288+32.0284223873661+${C23all})/3.0
variable C12cubic equal (27.9036198472288+32.0284223873661+33.6052599671526)/3.0
variable C44cubic equal (${C44all}+${C55all}+${C66all})/3.0
variable C44cubic equal (25.495031705151+${C55all}+${C66all})/3.0
variable C44cubic equal (25.495031705151+23.0520066927035+${C66all})/3.0
variable C44cubic equal (25.495031705151+23.0520066927035+22.6790926133817)/3.0

variable bulkmodulus equal (${C11cubic}+2*${C12cubic})/3.0
variable bulkmodulus equal (72.9365023354987+2*${C12cubic})/3.0
variable bulkmodulus equal (72.9365023354987+2*31.1791007339158)/3.0
variable shearmodulus1 equal ${C44cubic}
variable shearmodulus1 equal 23.7420436704121
variable shearmodulus2 equal (${C11cubic}-${C12cubic})/2.0
variable shearmodulus2 equal (72.9365023354987-${C12cubic})/2.0
variable shearmodulus2 equal (72.9365023354987-31.1791007339158)/2.0
variable poissonratio equal 1.0/(1.0+${C11cubic}/${C12cubic})
variable poissonratio equal 1.0/(1.0+72.9365023354987/${C12cubic})
variable poissonratio equal 1.0/(1.0+72.9365023354987/31.1791007339158)

print "Elastic Constant 1 1 = ${C11all}"
Elastic Constant 1 1 = 64.9011149318266
print "Elastic Constant 2 2 = ${C22all}"
Elastic Constant 2 2 = 69.8198873061239
print "Elastic Constant 3 3 = ${C33all}"
Elastic Constant 3 3 = 84.0885047685457

print "Elastic Constant 1 2 = ${C12all}"
Elastic Constant 1 2 = 27.9036198472288
print "Elastic Constant 1 3 = ${C13all}"
Elastic Constant 1 3 = 32.0284223873661
print "Elastic Constant 2 3 = ${C23all}"
Elastic Constant 2 3 = 33.6052599671526

print "Elastic Constant 4 4 = ${C44all}"
Elastic Constant 4 4 = 25.495031705151
print "Elastic Constant 5 5 = ${C55all}"
Elastic Constant 5 5 = 23.0520066927035
print "Elastic Constant 6 6 = ${C66all}"
Elastic Constant 6 6 = 22.6790926133817

print "Elastic Constant 1 4 = ${C14all}"
Elastic Constant 1 4 = -3.39256145134624
print "Elastic Constant 1 5 = ${C15all}"
Elastic Constant 1 5 = 1.74015538915304
print "Elastic Constant 1 6 = ${C16all}"
Elastic Constant 1 6 = 0.070746353820375

print "Elastic Constant 2 4 = ${C24all}"
Elastic Constant 2 4 = 2.21475711726551
print "Elastic Constant 2 5 = ${C25all}"
Elastic Constant 2 5 = 0.660484297898939
print "Elastic Constant 2 6 = ${C26all}"
Elastic Constant 2 6 = 4.13921856050668

print "Elastic Constant 3 4 = ${C34all}"
Elastic Constant 3 4 = 0.821093967266404
print "Elastic Constant 3 5 = ${C35all}"
Elastic Constant 3 5 = 2.18956098622635
print "Elastic Constant 3 6 = ${C36all}"
Elastic Constant 3 6 = 2.18226300864395

print "Elastic Constant 4 5 = ${C45all}"
Elastic Constant 4 5 = -0.510422922166702
print "Elastic Constant 4 6 = ${C46all}"
Elastic Constant 4 6 = -0.34740262489986
print "Elastic Constant 5 6 = ${C56all}"
Elastic Constant 5 6 = -3.33555297216017

print "Bulk Modulus = ${bulkmodulus} ${cunits}"
Bulk Modulus = 45.0982346011101 GPa
print "Shear Modulus 1 = ${shearmodulus1} ${cunits}"
Shear Modulus 1 = 23.7420436704121 GPa
print "Shear Modulus 2 = ${shearmodulus2} ${cunits}"
Shear Modulus 2 = 20.8787008007914 GPa
print "Poisson Ratio = ${poissonratio}"
Poisson Ratio = 0.299466168515861

variable rho equal density
print "density (g/cm^3) = ${rho}"
density (g/cm^3) = 1.67946550926183
Total wall time: 0:00:00
