units           real
atom_style      full
boundary        p p p

pair_style      lj/cut 5.000
bond_style      harmonic
angle_style     hybrid cosine/periodic fourier
dihedral_style  harmonic

special_bonds   lj/coul 0.0 0.0 1.0
dielectric      1.0
pair_modify     tail yes mix arithmetic
box tilt        large

The 'box' command has been removed and will be ignored

read_data       ./dat/data.333U-50C-20-vasp
Reading data file ...
  triclinic box = (0 0 0) to (15.238206 14.502811 17.008496) with tilt (-6.262741 -0.448186 -0.641994)
  1 by 1 by 1 MPI processor grid
  reading atoms ...
  350 atoms
  scanning bonds ...
  4 = max bonds/atom
  scanning angles ...
  6 = max angles/atom
  scanning dihedrals ...
  30 = max dihedrals/atom
  triclinic box = (0 0 0) to (15.238206 14.502811 17.008496) with tilt (-6.262741 -0.448186 -0.641994)
  1 by 1 by 1 MPI processor grid
  reading bonds ...
  375 bonds
  reading angles ...
  709 angles
  reading dihedrals ...
  879 dihedrals
Finding 1-2 1-3 1-4 neighbors ...
  special bond factors lj:    0        0        1       
  special bond factors coul:  0        0        1       
     4 = max # of 1-2 neighbors
    10 = max # of 1-3 neighbors
    14 = max # of special neighbors
  special bonds CPU = 0.000 seconds
  read_data CPU = 0.007 seconds

#### Atom Groupings ####
group           fram     id   1:350
350 atoms in group fram
#### END Atom Groupings ####

compute am all property/atom mass
dump        atom_pos all extxyz 100 ./output/333U-50C-20-vasp.lammpstrj
dump_modify atom_pos element Si C H O mass yes
thermo          1000
thermo_style    custom step temp pe ke etotal press vol density

variable up equal 2e-2
variable cfac equal 1.0e-4
variable cunits string GPa

# Define minimization parameters
variable etol equal 0.0
variable ftol equal 1.0e-10
variable maxiter equal 100000
variable maxeval equal 100000
variable dmax equal 1.0e-2

variable temp equal 300.0
variable thermal_damp index 100.0
variable pressure_damp index 500.0

fix relax all box/relax aniso 0.0 vmax 0.001
unfix relax
minimize ${etol} ${ftol} ${maxiter} ${maxeval}
minimize 0 ${ftol} ${maxiter} ${maxeval}
minimize 0 1e-10 ${maxiter} ${maxeval}
minimize 0 1e-10 100000 ${maxeval}
minimize 0 1e-10 100000 100000
Generated 6 of 6 mixed pair_coeff terms from arithmetic mixing rule
Neighbor list info ...
  update: every = 1 steps, delay = 0 steps, check = yes
  max neighbors/atom: 2000, page size: 100000
  master list distance cutoff = 7
  ghost atom cutoff = 7
  binsize = 3.5, bins = 7 5 5
  1 neighbor lists, perpetual/occasional/extra = 1 0 0
  (1) pair lj/cut, perpetual
      attributes: half, newton on
      pair build: half/bin/newton/tri
      stencil: half/bin/3d/tri
      bin: standard
WARNING: Inconsistent image flags
For more information see https://docs.lammps.org/err0027 (src/domain.cpp:1052)
Per MPI rank memory allocation (min/avg/max) = 19.51 | 19.51 | 19.51 Mbytes
   Step          Temp          PotEng         KinEng         TotEng         Press          Volume        Density    
         0   0              1272.689       0              1272.689       98781.481      3758.8236      1.7278645    
        66   0             -16.639303      0             -16.639303      15733.727      3758.8236      1.7278645    
Loop time of 0.0364385 on 1 procs for 66 steps with 350 atoms

107.9% CPU use with 1 MPI tasks x 1 OpenMP threads

Minimization stats:
  Stopping criterion = linesearch alpha is zero
  Energy initial, next-to-last, final = 
      1272.68903998096  -16.6393031610211  -16.6393031610211
  Force two-norm initial, final = 901.271 27.323435
  Force max component initial, final = 114.73042 5.4623319
  Final line search alpha, max atom move = 1.4764214e-11 8.0647034e-11
  Iterations, force evaluations = 66 189

MPI task timing breakdown:
Section |  min time  |  avg time  |  max time  |%varavg| %total
---------------------------------------------------------------
Pair    | 0.025124   | 0.025124   | 0.025124   |   0.0 | 68.95
Bond    | 0.0061304  | 0.0061304  | 0.0061304  |   0.0 | 16.82
Neigh   | 0.0033508  | 0.0033508  | 0.0033508  |   0.0 |  9.20
Comm    | 0.00081866 | 0.00081866 | 0.00081866 |   0.0 |  2.25
Output  | 0          | 0          | 0          |   0.0 |  0.00
Modify  | 0          | 0          | 0          |   0.0 |  0.00
Other   |            | 0.001015   |            |       |  2.78

Nlocal:            350 ave         350 max         350 min
Histogram: 1 0 0 0 0 0 0 0 0 0
Nghost:           2194 ave        2194 max        2194 min
Histogram: 1 0 0 0 0 0 0 0 0 0
Neighs:          22163 ave       22163 max       22163 min
Histogram: 1 0 0 0 0 0 0 0 0 0

Total # of neighbors = 22163
Ave neighs/atom = 63.322857
Ave special neighs/atom = 6.1942857
Neighbor list builds = 2
Dangerous builds = 0

# Generating the full routine as described in the paper for UFF
# fix nvt_relax   all nvt temp 300 300 ${thermal_damp}
# run 100000      # 100 picoseconds
# unfix           nvt_relax
#
# fix npt_relax   all npt temp 300 300 ${thermal_damp} iso 0 0 ${pressure_damp}
# run 100000      # 100 picoseconds
# unfix           npt_relax
#
# fix nvt_heat    all nvt temp 300 1000 ${thermal_damp}
# run 100000      # 100 picoseconds
# unfix           nvt_heat
#
# fix npt_heat    all npt temp 1000 1000 ${thermal_damp} iso 0 0 ${pressure_damp}
# run 100000      # 100 picoseconds
# unfix           npt_heat
#
# fix cooling_npt all npt temp 1000 300 ${thermal_damp} iso 0 0 ${pressure_damp}
# run 700000      # 700 picoseconds
# unfix           cooling_npt
#
# fix npt_final   all npt temp 300 300 ${thermal_damp} iso 0 0 100
# run 100000      # 100 picoseconds
# unfix           npt_final

# density computation
# variable rho equal density
# fix integrate  all npt temp ${temp} ${temp} ${thermal_damp} iso 0 0 ${pressure_damp}
# fix rho50k all ave/time 10 5000 50000 v_rho mode scalar ave one
# run 50000
# unfix integrate
# unfix rho50k

# Compute initial state
fix 3 all box/relax  aniso 0.0
minimize ${etol} ${ftol} ${maxiter} ${maxeval}
minimize 0 ${ftol} ${maxiter} ${maxeval}
minimize 0 1e-10 ${maxiter} ${maxeval}
minimize 0 1e-10 100000 ${maxeval}
minimize 0 1e-10 100000 100000
Generated 6 of 6 mixed pair_coeff terms from arithmetic mixing rule
WARNING: Energy due to 3 extra global DOFs will be included in minimizer energies
 (src/min.cpp:222)
WARNING: Inconsistent image flags
For more information see https://docs.lammps.org/err0027 (src/domain.cpp:1052)
Per MPI rank memory allocation (min/avg/max) = 20.58 | 20.58 | 20.58 Mbytes
   Step          Temp          PotEng         KinEng         TotEng         Press          Volume        Density    
        66   0             -16.639303      0             -16.639303      15733.727      3758.8236      1.7278645    
        88   0             -18.58411       0             -18.58411       12624.385      3767.5673      1.7238545    
Loop time of 0.0460318 on 1 procs for 22 steps with 350 atoms

107.9% CPU use with 1 MPI tasks x 1 OpenMP threads

Minimization stats:
  Stopping criterion = linesearch alpha is zero
  Energy initial, next-to-last, final = 
     -16.6393031610208  -18.5841095841249  -18.5841095841249
  Force two-norm initial, final = 1500.5216 1207.2199
  Force max component initial, final = 972.18548 791.78499
  Final line search alpha, max atom move = 7.5278826e-15 5.9604645e-12
  Iterations, force evaluations = 22 211

MPI task timing breakdown:
Section |  min time  |  avg time  |  max time  |%varavg| %total
---------------------------------------------------------------
Pair    | 0.030801   | 0.030801   | 0.030801   |   0.0 | 66.91
Bond    | 0.0092338  | 0.0092338  | 0.0092338  |   0.0 | 20.06
Neigh   | 0          | 0          | 0          |   0.0 |  0.00
Comm    | 0.0010262  | 0.0010262  | 0.0010262  |   0.0 |  2.23
Output  | 0          | 0          | 0          |   0.0 |  0.00
Modify  | 0          | 0          | 0          |   0.0 |  0.00
Other   |            | 0.004971   |            |       | 10.80

Nlocal:            350 ave         350 max         350 min
Histogram: 1 0 0 0 0 0 0 0 0 0
Nghost:           2182 ave        2182 max        2182 min
Histogram: 1 0 0 0 0 0 0 0 0 0
Neighs:          22068 ave       22068 max       22068 min
Histogram: 1 0 0 0 0 0 0 0 0 0

Total # of neighbors = 22068
Ave neighs/atom = 63.051429
Ave special neighs/atom = 6.1942857
Neighbor list builds = 0
Dangerous builds = 0

variable tmp equal pxx
variable pxx0 equal ${tmp}
variable pxx0 equal 14422.8670930764
variable tmp equal pyy
variable pyy0 equal ${tmp}
variable pyy0 equal 11396.6453823972
variable tmp equal pzz
variable pzz0 equal ${tmp}
variable pzz0 equal 12053.6430216383
variable tmp equal pyz
variable pyz0 equal ${tmp}
variable pyz0 equal -1794.19828956165
variable tmp equal pxz
variable pxz0 equal ${tmp}
variable pxz0 equal 2362.91862953685
variable tmp equal pxy
variable pxy0 equal ${tmp}
variable pxy0 equal 1600.31228165677

variable tmp equal lx
variable lx0 equal ${tmp}
variable lx0 equal 15.2515885341167
variable tmp equal ly
variable ly0 equal ${tmp}
variable ly0 equal 14.5130020745405
variable tmp equal lz
variable lz0 equal ${tmp}
variable lz0 equal 17.0211412617452

# These formulas define the derivatives w.r.t. strain components
# Constants uses $, variables use v_
variable d1 equal -(v_pxx1-${pxx0})/(v_delta/v_len0)*${cfac}
variable d1 equal -(v_pxx1-14422.8670930764)/(v_delta/v_len0)*${cfac}
variable d1 equal -(v_pxx1-14422.8670930764)/(v_delta/v_len0)*0.0001
variable d2 equal -(v_pyy1-${pyy0})/(v_delta/v_len0)*${cfac}
variable d2 equal -(v_pyy1-11396.6453823972)/(v_delta/v_len0)*${cfac}
variable d2 equal -(v_pyy1-11396.6453823972)/(v_delta/v_len0)*0.0001
variable d3 equal -(v_pzz1-${pzz0})/(v_delta/v_len0)*${cfac}
variable d3 equal -(v_pzz1-12053.6430216383)/(v_delta/v_len0)*${cfac}
variable d3 equal -(v_pzz1-12053.6430216383)/(v_delta/v_len0)*0.0001
variable d4 equal -(v_pyz1-${pyz0})/(v_delta/v_len0)*${cfac}
variable d4 equal -(v_pyz1--1794.19828956165)/(v_delta/v_len0)*${cfac}
variable d4 equal -(v_pyz1--1794.19828956165)/(v_delta/v_len0)*0.0001
variable d5 equal -(v_pxz1-${pxz0})/(v_delta/v_len0)*${cfac}
variable d5 equal -(v_pxz1-2362.91862953685)/(v_delta/v_len0)*${cfac}
variable d5 equal -(v_pxz1-2362.91862953685)/(v_delta/v_len0)*0.0001
variable d6 equal -(v_pxy1-${pxy0})/(v_delta/v_len0)*${cfac}
variable d6 equal -(v_pxy1-1600.31228165677)/(v_delta/v_len0)*${cfac}
variable d6 equal -(v_pxy1-1600.31228165677)/(v_delta/v_len0)*0.0001

# displace_atoms all random ${atomjiggle} ${atomjiggle} ${atomjiggle} 87287 units box

# Write restart
unfix 3
write_restart restart_333U-50C-20-vasp.equil
System init for write_restart ...
Generated 6 of 6 mixed pair_coeff terms from arithmetic mixing rule

# uxx Perturbation

variable dir equal 1
include ./input/displace_333U-50C-20-vasp.mod
if "${dir} == 1" then    "variable len0 equal ${lx0}"
variable len0 equal ${lx0}
variable len0 equal 15.2515885341167
if "${dir} == 2" then    "variable len0 equal ${ly0}"
if "${dir} == 3" then    "variable len0 equal ${lz0}"
if "${dir} == 4" then    "variable len0 equal ${lz0}"
if "${dir} == 5" then    "variable len0 equal ${lz0}"
if "${dir} == 6" then    "variable len0 equal ${ly0}"

# Reset box and simulation parameters

clear
OMP_NUM_THREADS environment is not set. Defaulting to 1 thread.
  using 1 OpenMP thread(s) per MPI task
box tilt large

The 'box' command has been removed and will be ignored

read_restart restart_333U-50C-20-vasp.equil
Reading restart file ...
  restart file = 10 Sep 2025, LAMMPS = 10 Sep 2025
  restoring atom style full from restart
  triclinic box = (-0.0066912671 -0.0050955373 -0.0063226309) to (15.244897 14.507907 17.014819) with tilt (-6.2671418 -0.44851921 -0.6424713)
  1 by 1 by 1 MPI processor grid
  restoring pair style lj/cut from restart
  restoring bond style harmonic from restart
  restoring angle style hybrid from restart
  restoring dihedral style harmonic from restart
  350 atoms
  375 bonds
  709 angles
  879 dihedrals
Finding 1-2 1-3 1-4 neighbors ...
  special bond factors lj:    0        0        1       
  special bond factors coul:  0        0        1       
     4 = max # of 1-2 neighbors
    10 = max # of 1-3 neighbors
    14 = max # of special neighbors
  special bonds CPU = 0.000 seconds
  read_restart CPU = 0.001 seconds
include ./input/angles_333U-50C-20-vasp.mod
angle_style hybrid fourier cosine/periodic
angle_coeff 1 fourier 58.020602        0.343737        0.374972        0.281246
angle_coeff 2 fourier 157.882480        0.343737        0.374972        0.281246
angle_coeff 3 fourier 83.380072        0.343737        0.374972        0.281246
angle_coeff 4 fourier 221.735285        0.343737        0.374972        0.281246
angle_coeff 5 fourier 114.246973        0.343737        0.374972        0.281246
angle_coeff 6 fourier 32.417871        0.343737        0.374972        0.281246
angle_coeff 7 fourier 90.420412        0.343737        0.374972        0.281246
angle_coeff 8 fourier 75.498766        0.343737        0.374972        0.281246
angle_coeff 9 cosine/periodic 88.853997              -1               3

# Negative deformation

variable delta equal -${up}*${len0}
variable delta equal -0.02*${len0}
variable delta equal -0.02*15.2515885341167
variable deltaxy equal -${up}*xy
variable deltaxy equal -0.02*xy
variable deltaxz equal -${up}*xz
variable deltaxz equal -0.02*xz
variable deltayz equal -${up}*yz
variable deltayz equal -0.02*yz
if "${dir} == 1" then    "change_box all x delta 0 ${delta} xy delta ${deltaxy} xz delta ${deltaxz} remap units box"
change_box all x delta 0 ${delta} xy delta ${deltaxy} xz delta ${deltaxz} remap units box
change_box all x delta 0 -0.305031770682334 xy delta ${deltaxy} xz delta ${deltaxz} remap units box
change_box all x delta 0 -0.305031770682334 xy delta 0.125342836123714 xz delta ${deltaxz} remap units box
change_box all x delta 0 -0.305031770682334 xy delta 0.125342836123714 xz delta 0.00897038423331084 remap units box
Changing box ...
  triclinic box = (-0.0066912671 -0.0050955373 -0.0063226309) to (14.939865 14.507907 17.014819) with tilt (-6.2671418 -0.44851921 -0.6424713)
  triclinic box = (-0.0066912671 -0.0050955373 -0.0063226309) to (14.939865 14.507907 17.014819) with tilt (-6.141799 -0.44851921 -0.6424713)
  triclinic box = (-0.0066912671 -0.0050955373 -0.0063226309) to (14.939865 14.507907 17.014819) with tilt (-6.141799 -0.43954883 -0.6424713)
if "${dir} == 2" then    "change_box all y delta 0 ${delta} yz delta ${deltayz} remap units box"
if "${dir} == 3" then    "change_box all z delta 0 ${delta} remap units box"
if "${dir} == 4" then    "change_box all yz delta ${delta} remap units box"
if "${dir} == 5" then    "change_box all xz delta ${delta} remap units box"
if "${dir} == 6" then    "change_box all xy delta ${delta} remap units box"

# Relax atoms positions

minimize ${etol} ${ftol} ${maxiter} ${maxeval}
minimize 0 ${ftol} ${maxiter} ${maxeval}
minimize 0 1e-10 ${maxiter} ${maxeval}
minimize 0 1e-10 100000 ${maxeval}
minimize 0 1e-10 100000 100000
Generated 6 of 6 mixed pair_coeff terms from arithmetic mixing rule
Neighbor list info ...
  update: every = 1 steps, delay = 0 steps, check = yes
  max neighbors/atom: 2000, page size: 100000
  master list distance cutoff = 7
  ghost atom cutoff = 7
  binsize = 3.5, bins = 7 5 5
  1 neighbor lists, perpetual/occasional/extra = 1 0 0
  (1) pair lj/cut, perpetual
      attributes: half, newton on
      pair build: half/bin/newton/tri
      stencil: half/bin/3d/tri
      bin: standard
WARNING: Inconsistent image flags
For more information see https://docs.lammps.org/err0027 (src/domain.cpp:1052)
Per MPI rank memory allocation (min/avg/max) = 19.51 | 19.51 | 19.51 Mbytes
   Step          Temp          E_pair         E_mol          TotEng         Press     
        88   0             -408.42579      436.34107      27.915287      39642.168    
       145   0             -422.61341      394.12871     -28.484696      22345.42     
Loop time of 0.0388915 on 1 procs for 57 steps with 350 atoms

107.9% CPU use with 1 MPI tasks x 1 OpenMP threads

Minimization stats:
  Stopping criterion = linesearch alpha is zero
  Energy initial, next-to-last, final = 
      27.9152871500249  -28.4846962772659  -28.4846962772659
  Force two-norm initial, final = 165.44524 18.669229
  Force max component initial, final = 21.132598 3.7642423
  Final line search alpha, max atom move = 2.8129383e-11 1.0588581e-10
  Iterations, force evaluations = 57 175

MPI task timing breakdown:
Section |  min time  |  avg time  |  max time  |%varavg| %total
---------------------------------------------------------------
Pair    | 0.028009   | 0.028009   | 0.028009   |   0.0 | 72.02
Bond    | 0.0069248  | 0.0069248  | 0.0069248  |   0.0 | 17.81
Neigh   | 0.0023146  | 0.0023146  | 0.0023146  |   0.0 |  5.95
Comm    | 0.00091751 | 0.00091751 | 0.00091751 |   0.0 |  2.36
Output  | 0          | 0          | 0          |   0.0 |  0.00
Modify  | 0          | 0          | 0          |   0.0 |  0.00
Other   |            | 0.0007252  |            |       |  1.86

Nlocal:            350 ave         350 max         350 min
Histogram: 1 0 0 0 0 0 0 0 0 0
Nghost:           2198 ave        2198 max        2198 min
Histogram: 1 0 0 0 0 0 0 0 0 0
Neighs:          22521 ave       22521 max       22521 min
Histogram: 1 0 0 0 0 0 0 0 0 0

Total # of neighbors = 22521
Ave neighs/atom = 64.345714
Ave special neighs/atom = 6.1942857
Neighbor list builds = 1
Dangerous builds = 0

# Obtain new stress tensor

variable tmp equal pxx
variable pxx1 equal ${tmp}
variable pxx1 equal 28035.5424820224
variable tmp equal pyy
variable pyy1 equal ${tmp}
variable pyy1 equal 18012.4189649695
variable tmp equal pzz
variable pzz1 equal ${tmp}
variable pzz1 equal 20988.2989675628
variable tmp equal pxy
variable pxy1 equal ${tmp}
variable pxy1 equal 2647.82786615112
variable tmp equal pxz
variable pxz1 equal ${tmp}
variable pxz1 equal 238.879701006221
variable tmp equal pyz
variable pyz1 equal ${tmp}
variable pyz1 equal -1335.88060091124

# Compute elastic constant from pressure tensor

variable C1neg equal ${d1}
variable C1neg equal 68.06337694473
variable C2neg equal ${d2}
variable C2neg equal 33.0788679128615
variable C3neg equal ${d3}
variable C3neg equal 44.6732797296225
variable C4neg equal ${d4}
variable C4neg equal 2.29158844325205
variable C5neg equal ${d5}
variable C5neg equal -10.6201946426531
variable C6neg equal ${d6}
variable C6neg equal 5.23757792247175

# Reset box and simulation parameters

clear
OMP_NUM_THREADS environment is not set. Defaulting to 1 thread.
  using 1 OpenMP thread(s) per MPI task
box tilt large

The 'box' command has been removed and will be ignored

read_restart restart_333U-50C-20-vasp.equil
Reading restart file ...
  restart file = 10 Sep 2025, LAMMPS = 10 Sep 2025
  restoring atom style full from restart
  triclinic box = (-0.0066912671 -0.0050955373 -0.0063226309) to (15.244897 14.507907 17.014819) with tilt (-6.2671418 -0.44851921 -0.6424713)
  1 by 1 by 1 MPI processor grid
  restoring pair style lj/cut from restart
  restoring bond style harmonic from restart
  restoring angle style hybrid from restart
  restoring dihedral style harmonic from restart
  350 atoms
  375 bonds
  709 angles
  879 dihedrals
Finding 1-2 1-3 1-4 neighbors ...
  special bond factors lj:    0        0        1       
  special bond factors coul:  0        0        1       
     4 = max # of 1-2 neighbors
    10 = max # of 1-3 neighbors
    14 = max # of special neighbors
  special bonds CPU = 0.000 seconds
  read_restart CPU = 0.001 seconds
include ./input/angles_333U-50C-20-vasp.mod
angle_style hybrid fourier cosine/periodic
angle_coeff 1 fourier 58.020602        0.343737        0.374972        0.281246
angle_coeff 2 fourier 157.882480        0.343737        0.374972        0.281246
angle_coeff 3 fourier 83.380072        0.343737        0.374972        0.281246
angle_coeff 4 fourier 221.735285        0.343737        0.374972        0.281246
angle_coeff 5 fourier 114.246973        0.343737        0.374972        0.281246
angle_coeff 6 fourier 32.417871        0.343737        0.374972        0.281246
angle_coeff 7 fourier 90.420412        0.343737        0.374972        0.281246
angle_coeff 8 fourier 75.498766        0.343737        0.374972        0.281246
angle_coeff 9 cosine/periodic 88.853997              -1               3

# Positive deformation

variable delta equal ${up}*${len0}
variable delta equal 0.02*${len0}
variable delta equal 0.02*15.2515885341167
variable deltaxy equal ${up}*xy
variable deltaxy equal 0.02*xy
variable deltaxz equal ${up}*xz
variable deltaxz equal 0.02*xz
variable deltayz equal ${up}*yz
variable deltayz equal 0.02*yz
if "${dir} == 1" then    "change_box all x delta 0 ${delta} xy delta ${deltaxy} xz delta ${deltaxz} remap units box"
change_box all x delta 0 ${delta} xy delta ${deltaxy} xz delta ${deltaxz} remap units box
change_box all x delta 0 0.305031770682334 xy delta ${deltaxy} xz delta ${deltaxz} remap units box
change_box all x delta 0 0.305031770682334 xy delta -0.125342836123714 xz delta ${deltaxz} remap units box
change_box all x delta 0 0.305031770682334 xy delta -0.125342836123714 xz delta -0.00897038423331084 remap units box
Changing box ...
  triclinic box = (-0.0066912671 -0.0050955373 -0.0063226309) to (15.549929 14.507907 17.014819) with tilt (-6.2671418 -0.44851921 -0.6424713)
  triclinic box = (-0.0066912671 -0.0050955373 -0.0063226309) to (15.549929 14.507907 17.014819) with tilt (-6.3924846 -0.44851921 -0.6424713)
  triclinic box = (-0.0066912671 -0.0050955373 -0.0063226309) to (15.549929 14.507907 17.014819) with tilt (-6.3924846 -0.4574896 -0.6424713)
if "${dir} == 2" then    "change_box all y delta 0 ${delta} yz delta ${deltayz} remap units box"
if "${dir} == 3" then    "change_box all z delta 0 ${delta} remap units box"
if "${dir} == 4" then    "change_box all yz delta ${delta} remap units box"
if "${dir} == 5" then    "change_box all xz delta ${delta} remap units box"
if "${dir} == 6" then    "change_box all xy delta ${delta} remap units box"

# Relax atoms positions

minimize ${etol} ${ftol} ${maxiter} ${maxeval}
minimize 0 ${ftol} ${maxiter} ${maxeval}
minimize 0 1e-10 ${maxiter} ${maxeval}
minimize 0 1e-10 100000 ${maxeval}
minimize 0 1e-10 100000 100000
Generated 6 of 6 mixed pair_coeff terms from arithmetic mixing rule
Neighbor list info ...
  update: every = 1 steps, delay = 0 steps, check = yes
  max neighbors/atom: 2000, page size: 100000
  master list distance cutoff = 7
  ghost atom cutoff = 7
  binsize = 3.5, bins = 7 5 5
  1 neighbor lists, perpetual/occasional/extra = 1 0 0
  (1) pair lj/cut, perpetual
      attributes: half, newton on
      pair build: half/bin/newton/tri
      stencil: half/bin/3d/tri
      bin: standard
WARNING: Inconsistent image flags
For more information see https://docs.lammps.org/err0027 (src/domain.cpp:1052)
Per MPI rank memory allocation (min/avg/max) = 19.51 | 19.51 | 19.51 Mbytes
   Step          Temp          E_pair         E_mol          TotEng         Press     
        88   0             -449.58945      445.39597     -4.1934808     -13387.123    
       121   0             -452.74474      410.73004     -42.014702      6354.6507    
Loop time of 0.025027 on 1 procs for 33 steps with 350 atoms

107.9% CPU use with 1 MPI tasks x 1 OpenMP threads

Minimization stats:
  Stopping criterion = linesearch alpha is zero
  Energy initial, next-to-last, final = 
      -4.1934807941268  -42.0147017262942  -42.0147017262942
  Force two-norm initial, final = 180.66138 28.701708
  Force max component initial, final = 21.525481 4.5882047
  Final line search alpha, max atom move = 1.2990267e-11 5.9602005e-11
  Iterations, force evaluations = 33 123

MPI task timing breakdown:
Section |  min time  |  avg time  |  max time  |%varavg| %total
---------------------------------------------------------------
Pair    | 0.019      | 0.019      | 0.019      |   0.0 | 75.92
Bond    | 0.0049611  | 0.0049611  | 0.0049611  |   0.0 | 19.82
Neigh   | 0          | 0          | 0          |   0.0 |  0.00
Comm    | 0.00061703 | 0.00061703 | 0.00061703 |   0.0 |  2.47
Output  | 0          | 0          | 0          |   0.0 |  0.00
Modify  | 0          | 0          | 0          |   0.0 |  0.00
Other   |            | 0.0004485  |            |       |  1.79

Nlocal:            350 ave         350 max         350 min
Histogram: 1 0 0 0 0 0 0 0 0 0
Nghost:           2162 ave        2162 max        2162 min
Histogram: 1 0 0 0 0 0 0 0 0 0
Neighs:          21623 ave       21623 max       21623 min
Histogram: 1 0 0 0 0 0 0 0 0 0

Total # of neighbors = 21623
Ave neighs/atom = 61.78
Ave special neighs/atom = 6.1942857
Neighbor list builds = 0
Dangerous builds = 0

# Obtain new stress tensor

variable tmp equal pe
variable e1 equal ${tmp}
variable e1 equal -42.0147017262942
variable tmp equal press
variable p1 equal ${tmp}
variable p1 equal 6354.65068162971
variable tmp equal pxx
variable pxx1 equal ${tmp}
variable pxx1 equal 2502.6556884359
variable tmp equal pyy
variable pyy1 equal ${tmp}
variable pyy1 equal 8361.62462834161
variable tmp equal pzz
variable pzz1 equal ${tmp}
variable pzz1 equal 8199.6717281116
variable tmp equal pxy
variable pxy1 equal ${tmp}
variable pxy1 equal 1940.40539275286
variable tmp equal pxz
variable pxz1 equal ${tmp}
variable pxz1 equal 899.574087704024
variable tmp equal pyz
variable pyz1 equal ${tmp}
variable pyz1 equal -1778.51655552154

# Compute elastic constant from pressure tensor

variable C1pos equal ${d1}
variable C1pos equal 59.6010570232025
variable C2pos equal ${d2}
variable C2pos equal 15.175103770278
variable C3pos equal ${d3}
variable C3pos equal 19.2698564676335
variable C4pos equal ${d4}
variable C4pos equal -0.0784086702005493
variable C5pos equal ${d5}
variable C5pos equal 7.31672270916413
variable C6pos equal ${d6}
variable C6pos equal -1.70046555548045

# Combine positive and negative

variable C1${dir} equal 0.5*(${C1neg}+${C1pos})
variable C11 equal 0.5*(${C1neg}+${C1pos})
variable C11 equal 0.5*(68.06337694473+${C1pos})
variable C11 equal 0.5*(68.06337694473+59.6010570232025)
variable C2${dir} equal 0.5*(${C2neg}+${C2pos})
variable C21 equal 0.5*(${C2neg}+${C2pos})
variable C21 equal 0.5*(33.0788679128615+${C2pos})
variable C21 equal 0.5*(33.0788679128615+15.175103770278)
variable C3${dir} equal 0.5*(${C3neg}+${C3pos})
variable C31 equal 0.5*(${C3neg}+${C3pos})
variable C31 equal 0.5*(44.6732797296225+${C3pos})
variable C31 equal 0.5*(44.6732797296225+19.2698564676335)
variable C4${dir} equal 0.5*(${C4neg}+${C4pos})
variable C41 equal 0.5*(${C4neg}+${C4pos})
variable C41 equal 0.5*(2.29158844325205+${C4pos})
variable C41 equal 0.5*(2.29158844325205+-0.0784086702005493)
variable C5${dir} equal 0.5*(${C5neg}+${C5pos})
variable C51 equal 0.5*(${C5neg}+${C5pos})
variable C51 equal 0.5*(-10.6201946426531+${C5pos})
variable C51 equal 0.5*(-10.6201946426531+7.31672270916413)
variable C6${dir} equal 0.5*(${C6neg}+${C6pos})
variable C61 equal 0.5*(${C6neg}+${C6pos})
variable C61 equal 0.5*(5.23757792247175+${C6pos})
variable C61 equal 0.5*(5.23757792247175+-1.70046555548045)

# Delete dir to make sure it is not reused

variable dir delete

# uyy Perturbation

variable dir equal 2
include ./input/displace_333U-50C-20-vasp.mod
if "${dir} == 1" then    "variable len0 equal ${lx0}"
if "${dir} == 2" then    "variable len0 equal ${ly0}"
variable len0 equal ${ly0}
variable len0 equal 14.5130020745405
if "${dir} == 3" then    "variable len0 equal ${lz0}"
if "${dir} == 4" then    "variable len0 equal ${lz0}"
if "${dir} == 5" then    "variable len0 equal ${lz0}"
if "${dir} == 6" then    "variable len0 equal ${ly0}"

# Reset box and simulation parameters

clear
OMP_NUM_THREADS environment is not set. Defaulting to 1 thread.
  using 1 OpenMP thread(s) per MPI task
box tilt large

The 'box' command has been removed and will be ignored

read_restart restart_333U-50C-20-vasp.equil
Reading restart file ...
  restart file = 10 Sep 2025, LAMMPS = 10 Sep 2025
  restoring atom style full from restart
  triclinic box = (-0.0066912671 -0.0050955373 -0.0063226309) to (15.244897 14.507907 17.014819) with tilt (-6.2671418 -0.44851921 -0.6424713)
  1 by 1 by 1 MPI processor grid
  restoring pair style lj/cut from restart
  restoring bond style harmonic from restart
  restoring angle style hybrid from restart
  restoring dihedral style harmonic from restart
  350 atoms
  375 bonds
  709 angles
  879 dihedrals
Finding 1-2 1-3 1-4 neighbors ...
  special bond factors lj:    0        0        1       
  special bond factors coul:  0        0        1       
     4 = max # of 1-2 neighbors
    10 = max # of 1-3 neighbors
    14 = max # of special neighbors
  special bonds CPU = 0.000 seconds
  read_restart CPU = 0.001 seconds
include ./input/angles_333U-50C-20-vasp.mod
angle_style hybrid fourier cosine/periodic
angle_coeff 1 fourier 58.020602        0.343737        0.374972        0.281246
angle_coeff 2 fourier 157.882480        0.343737        0.374972        0.281246
angle_coeff 3 fourier 83.380072        0.343737        0.374972        0.281246
angle_coeff 4 fourier 221.735285        0.343737        0.374972        0.281246
angle_coeff 5 fourier 114.246973        0.343737        0.374972        0.281246
angle_coeff 6 fourier 32.417871        0.343737        0.374972        0.281246
angle_coeff 7 fourier 90.420412        0.343737        0.374972        0.281246
angle_coeff 8 fourier 75.498766        0.343737        0.374972        0.281246
angle_coeff 9 cosine/periodic 88.853997              -1               3

# Negative deformation

variable delta equal -${up}*${len0}
variable delta equal -0.02*${len0}
variable delta equal -0.02*14.5130020745405
variable deltaxy equal -${up}*xy
variable deltaxy equal -0.02*xy
variable deltaxz equal -${up}*xz
variable deltaxz equal -0.02*xz
variable deltayz equal -${up}*yz
variable deltayz equal -0.02*yz
if "${dir} == 1" then    "change_box all x delta 0 ${delta} xy delta ${deltaxy} xz delta ${deltaxz} remap units box"
if "${dir} == 2" then    "change_box all y delta 0 ${delta} yz delta ${deltayz} remap units box"
change_box all y delta 0 ${delta} yz delta ${deltayz} remap units box
change_box all y delta 0 -0.29026004149081 yz delta ${deltayz} remap units box
change_box all y delta 0 -0.29026004149081 yz delta 0.0128494260317818 remap units box
Changing box ...
  triclinic box = (-0.0066912671 -0.0050955373 -0.0063226309) to (15.244897 14.217646 17.014819) with tilt (-6.2671418 -0.44851921 -0.6424713)
  triclinic box = (-0.0066912671 -0.0050955373 -0.0063226309) to (15.244897 14.217646 17.014819) with tilt (-6.2671418 -0.44851921 -0.62962188)
if "${dir} == 3" then    "change_box all z delta 0 ${delta} remap units box"
if "${dir} == 4" then    "change_box all yz delta ${delta} remap units box"
if "${dir} == 5" then    "change_box all xz delta ${delta} remap units box"
if "${dir} == 6" then    "change_box all xy delta ${delta} remap units box"

# Relax atoms positions

minimize ${etol} ${ftol} ${maxiter} ${maxeval}
minimize 0 ${ftol} ${maxiter} ${maxeval}
minimize 0 1e-10 ${maxiter} ${maxeval}
minimize 0 1e-10 100000 ${maxeval}
minimize 0 1e-10 100000 100000
Generated 6 of 6 mixed pair_coeff terms from arithmetic mixing rule
Neighbor list info ...
  update: every = 1 steps, delay = 0 steps, check = yes
  max neighbors/atom: 2000, page size: 100000
  master list distance cutoff = 7
  ghost atom cutoff = 7
  binsize = 3.5, bins = 7 5 5
  1 neighbor lists, perpetual/occasional/extra = 1 0 0
  (1) pair lj/cut, perpetual
      attributes: half, newton on
      pair build: half/bin/newton/tri
      stencil: half/bin/3d/tri
      bin: standard
WARNING: Inconsistent image flags
For more information see https://docs.lammps.org/err0027 (src/domain.cpp:1052)
Per MPI rank memory allocation (min/avg/max) = 19.51 | 19.51 | 19.51 Mbytes
   Step          Temp          E_pair         E_mol          TotEng         Press     
        88   0             -411.10993      434.94959      23.83966       39561.849    
       124   0             -422.36192      408.59444     -13.767477      22503.892    
Loop time of 0.0310797 on 1 procs for 36 steps with 350 atoms

107.9% CPU use with 1 MPI tasks x 1 OpenMP threads

Minimization stats:
  Stopping criterion = linesearch alpha is zero
  Energy initial, next-to-last, final = 
      23.8396600180404  -13.7674772379929  -13.7674772379929
  Force two-norm initial, final = 171.56626 27.846212
  Force max component initial, final = 20.112817 3.2257768
  Final line search alpha, max atom move = 7.9105791e-12 2.5517763e-11
  Iterations, force evaluations = 36 150

MPI task timing breakdown:
Section |  min time  |  avg time  |  max time  |%varavg| %total
---------------------------------------------------------------
Pair    | 0.023858   | 0.023858   | 0.023858   |   0.0 | 76.77
Bond    | 0.0058931  | 0.0058931  | 0.0058931  |   0.0 | 18.96
Neigh   | 0          | 0          | 0          |   0.0 |  0.00
Comm    | 0.00074242 | 0.00074242 | 0.00074242 |   0.0 |  2.39
Output  | 0          | 0          | 0          |   0.0 |  0.00
Modify  | 0          | 0          | 0          |   0.0 |  0.00
Other   |            | 0.0005858  |            |       |  1.88

Nlocal:            350 ave         350 max         350 min
Histogram: 1 0 0 0 0 0 0 0 0 0
Nghost:           2206 ave        2206 max        2206 min
Histogram: 1 0 0 0 0 0 0 0 0 0
Neighs:          22485 ave       22485 max       22485 min
Histogram: 1 0 0 0 0 0 0 0 0 0

Total # of neighbors = 22485
Ave neighs/atom = 64.242857
Ave special neighs/atom = 6.1942857
Neighbor list builds = 0
Dangerous builds = 0

# Obtain new stress tensor

variable tmp equal pxx
variable pxx1 equal ${tmp}
variable pxx1 equal 19059.4786273124
variable tmp equal pyy
variable pyy1 equal ${tmp}
variable pyy1 equal 28638.7544558236
variable tmp equal pzz
variable pzz1 equal ${tmp}
variable pzz1 equal 19813.4434489176
variable tmp equal pxy
variable pxy1 equal ${tmp}
variable pxy1 equal 1732.9220098892
variable tmp equal pxz
variable pxz1 equal ${tmp}
variable pxz1 equal 1581.1735783963
variable tmp equal pyz
variable pyz1 equal ${tmp}
variable pyz1 equal -2704.88592604815

# Compute elastic constant from pressure tensor

variable C1neg equal ${d1}
variable C1neg equal 23.18305767118
variable C2neg equal ${d2}
variable C2neg equal 86.210545367132
variable C3neg equal ${d3}
variable C3neg equal 38.7990021363965
variable C4neg equal ${d4}
variable C4neg equal -4.5534381824325
variable C5neg equal ${d5}
variable C5neg equal -3.90872525570275
variable C6neg equal ${d6}
variable C6neg equal 0.66304864116215

# Reset box and simulation parameters

clear
OMP_NUM_THREADS environment is not set. Defaulting to 1 thread.
  using 1 OpenMP thread(s) per MPI task
box tilt large

The 'box' command has been removed and will be ignored

read_restart restart_333U-50C-20-vasp.equil
Reading restart file ...
  restart file = 10 Sep 2025, LAMMPS = 10 Sep 2025
  restoring atom style full from restart
  triclinic box = (-0.0066912671 -0.0050955373 -0.0063226309) to (15.244897 14.507907 17.014819) with tilt (-6.2671418 -0.44851921 -0.6424713)
  1 by 1 by 1 MPI processor grid
  restoring pair style lj/cut from restart
  restoring bond style harmonic from restart
  restoring angle style hybrid from restart
  restoring dihedral style harmonic from restart
  350 atoms
  375 bonds
  709 angles
  879 dihedrals
Finding 1-2 1-3 1-4 neighbors ...
  special bond factors lj:    0        0        1       
  special bond factors coul:  0        0        1       
     4 = max # of 1-2 neighbors
    10 = max # of 1-3 neighbors
    14 = max # of special neighbors
  special bonds CPU = 0.000 seconds
  read_restart CPU = 0.001 seconds
include ./input/angles_333U-50C-20-vasp.mod
angle_style hybrid fourier cosine/periodic
angle_coeff 1 fourier 58.020602        0.343737        0.374972        0.281246
angle_coeff 2 fourier 157.882480        0.343737        0.374972        0.281246
angle_coeff 3 fourier 83.380072        0.343737        0.374972        0.281246
angle_coeff 4 fourier 221.735285        0.343737        0.374972        0.281246
angle_coeff 5 fourier 114.246973        0.343737        0.374972        0.281246
angle_coeff 6 fourier 32.417871        0.343737        0.374972        0.281246
angle_coeff 7 fourier 90.420412        0.343737        0.374972        0.281246
angle_coeff 8 fourier 75.498766        0.343737        0.374972        0.281246
angle_coeff 9 cosine/periodic 88.853997              -1               3

# Positive deformation

variable delta equal ${up}*${len0}
variable delta equal 0.02*${len0}
variable delta equal 0.02*14.5130020745405
variable deltaxy equal ${up}*xy
variable deltaxy equal 0.02*xy
variable deltaxz equal ${up}*xz
variable deltaxz equal 0.02*xz
variable deltayz equal ${up}*yz
variable deltayz equal 0.02*yz
if "${dir} == 1" then    "change_box all x delta 0 ${delta} xy delta ${deltaxy} xz delta ${deltaxz} remap units box"
if "${dir} == 2" then    "change_box all y delta 0 ${delta} yz delta ${deltayz} remap units box"
change_box all y delta 0 ${delta} yz delta ${deltayz} remap units box
change_box all y delta 0 0.29026004149081 yz delta ${deltayz} remap units box
change_box all y delta 0 0.29026004149081 yz delta -0.0128494260317818 remap units box
Changing box ...
  triclinic box = (-0.0066912671 -0.0050955373 -0.0063226309) to (15.244897 14.798167 17.014819) with tilt (-6.2671418 -0.44851921 -0.6424713)
  triclinic box = (-0.0066912671 -0.0050955373 -0.0063226309) to (15.244897 14.798167 17.014819) with tilt (-6.2671418 -0.44851921 -0.65532073)
if "${dir} == 3" then    "change_box all z delta 0 ${delta} remap units box"
if "${dir} == 4" then    "change_box all yz delta ${delta} remap units box"
if "${dir} == 5" then    "change_box all xz delta ${delta} remap units box"
if "${dir} == 6" then    "change_box all xy delta ${delta} remap units box"

# Relax atoms positions

minimize ${etol} ${ftol} ${maxiter} ${maxeval}
minimize 0 ${ftol} ${maxiter} ${maxeval}
minimize 0 1e-10 ${maxiter} ${maxeval}
minimize 0 1e-10 100000 ${maxeval}
minimize 0 1e-10 100000 100000
Generated 6 of 6 mixed pair_coeff terms from arithmetic mixing rule
Neighbor list info ...
  update: every = 1 steps, delay = 0 steps, check = yes
  max neighbors/atom: 2000, page size: 100000
  master list distance cutoff = 7
  ghost atom cutoff = 7
  binsize = 3.5, bins = 7 5 5
  1 neighbor lists, perpetual/occasional/extra = 1 0 0
  (1) pair lj/cut, perpetual
      attributes: half, newton on
      pair build: half/bin/newton/tri
      stencil: half/bin/3d/tri
      bin: standard
WARNING: Inconsistent image flags
For more information see https://docs.lammps.org/err0027 (src/domain.cpp:1052)
Per MPI rank memory allocation (min/avg/max) = 19.51 | 19.51 | 19.51 Mbytes
   Step          Temp          E_pair         E_mol          TotEng         Press     
        88   0             -449.3058       447.91236     -1.3934353     -13397.62     
       149   0             -454.25858      399.63198     -54.626604      5165.3176    
Loop time of 0.0384135 on 1 procs for 61 steps with 350 atoms

107.9% CPU use with 1 MPI tasks x 1 OpenMP threads

Minimization stats:
  Stopping criterion = linesearch alpha is zero
  Energy initial, next-to-last, final = 
      -1.3934352932917  -54.6266037011843  -54.6266037011843
  Force two-norm initial, final = 183.60335 14.961871
  Force max component initial, final = 21.328462 2.5365827
  Final line search alpha, max atom move = 4.6342677e-11 1.1755203e-10
  Iterations, force evaluations = 61 179

MPI task timing breakdown:
Section |  min time  |  avg time  |  max time  |%varavg| %total
---------------------------------------------------------------
Pair    | 0.02747    | 0.02747    | 0.02747    |   0.0 | 71.51
Bond    | 0.0070954  | 0.0070954  | 0.0070954  |   0.0 | 18.47
Neigh   | 0.0021854  | 0.0021854  | 0.0021854  |   0.0 |  5.69
Comm    | 0.00090589 | 0.00090589 | 0.00090589 |   0.0 |  2.36
Output  | 0          | 0          | 0          |   0.0 |  0.00
Modify  | 0          | 0          | 0          |   0.0 |  0.00
Other   |            | 0.0007568  |            |       |  1.97

Nlocal:            350 ave         350 max         350 min
Histogram: 1 0 0 0 0 0 0 0 0 0
Nghost:           2128 ave        2128 max        2128 min
Histogram: 1 0 0 0 0 0 0 0 0 0
Neighs:          21595 ave       21595 max       21595 min
Histogram: 1 0 0 0 0 0 0 0 0 0

Total # of neighbors = 21595
Ave neighs/atom = 61.7
Ave special neighs/atom = 6.1942857
Neighbor list builds = 1
Dangerous builds = 0

# Obtain new stress tensor

variable tmp equal pe
variable e1 equal ${tmp}
variable e1 equal -54.6266037011843
variable tmp equal press
variable p1 equal ${tmp}
variable p1 equal 5165.31759477135
variable tmp equal pxx
variable pxx1 equal ${tmp}
variable pxx1 equal 5309.62626280439
variable tmp equal pyy
variable pyy1 equal ${tmp}
variable pyy1 equal 1843.85038119577
variable tmp equal pzz
variable pzz1 equal ${tmp}
variable pzz1 equal 8342.47614031389
variable tmp equal pxy
variable pxy1 equal ${tmp}
variable pxy1 equal 3104.88718737526
variable tmp equal pxz
variable pxz1 equal ${tmp}
variable pxz1 equal -740.943750997129
variable tmp equal pyz
variable pyz1 equal ${tmp}
variable pyz1 equal 422.015717769918

# Compute elastic constant from pressure tensor

variable C1pos equal ${d1}
variable C1pos equal 45.5662041513601
variable C2pos equal ${d2}
variable C2pos equal 47.7639750060072
variable C3pos equal ${d3}
variable C3pos equal 18.5558344066221
variable C4pos equal ${d4}
variable C4pos equal -11.0810700366578
variable C5pos equal ${d5}
variable C5pos equal 15.5193119026699
variable C6pos equal ${d6}
variable C6pos equal -7.52287452859245

# Combine positive and negative

variable C1${dir} equal 0.5*(${C1neg}+${C1pos})
variable C12 equal 0.5*(${C1neg}+${C1pos})
variable C12 equal 0.5*(23.18305767118+${C1pos})
variable C12 equal 0.5*(23.18305767118+45.5662041513601)
variable C2${dir} equal 0.5*(${C2neg}+${C2pos})
variable C22 equal 0.5*(${C2neg}+${C2pos})
variable C22 equal 0.5*(86.210545367132+${C2pos})
variable C22 equal 0.5*(86.210545367132+47.7639750060072)
variable C3${dir} equal 0.5*(${C3neg}+${C3pos})
variable C32 equal 0.5*(${C3neg}+${C3pos})
variable C32 equal 0.5*(38.7990021363965+${C3pos})
variable C32 equal 0.5*(38.7990021363965+18.5558344066221)
variable C4${dir} equal 0.5*(${C4neg}+${C4pos})
variable C42 equal 0.5*(${C4neg}+${C4pos})
variable C42 equal 0.5*(-4.5534381824325+${C4pos})
variable C42 equal 0.5*(-4.5534381824325+-11.0810700366578)
variable C5${dir} equal 0.5*(${C5neg}+${C5pos})
variable C52 equal 0.5*(${C5neg}+${C5pos})
variable C52 equal 0.5*(-3.90872525570275+${C5pos})
variable C52 equal 0.5*(-3.90872525570275+15.5193119026699)
variable C6${dir} equal 0.5*(${C6neg}+${C6pos})
variable C62 equal 0.5*(${C6neg}+${C6pos})
variable C62 equal 0.5*(0.66304864116215+${C6pos})
variable C62 equal 0.5*(0.66304864116215+-7.52287452859245)

# Delete dir to make sure it is not reused

variable dir delete

# uzz Perturbation

variable dir equal 3
include ./input/displace_333U-50C-20-vasp.mod
if "${dir} == 1" then    "variable len0 equal ${lx0}"
if "${dir} == 2" then    "variable len0 equal ${ly0}"
if "${dir} == 3" then    "variable len0 equal ${lz0}"
variable len0 equal ${lz0}
variable len0 equal 17.0211412617452
if "${dir} == 4" then    "variable len0 equal ${lz0}"
if "${dir} == 5" then    "variable len0 equal ${lz0}"
if "${dir} == 6" then    "variable len0 equal ${ly0}"

# Reset box and simulation parameters

clear
OMP_NUM_THREADS environment is not set. Defaulting to 1 thread.
  using 1 OpenMP thread(s) per MPI task
box tilt large

The 'box' command has been removed and will be ignored

read_restart restart_333U-50C-20-vasp.equil
Reading restart file ...
  restart file = 10 Sep 2025, LAMMPS = 10 Sep 2025
  restoring atom style full from restart
  triclinic box = (-0.0066912671 -0.0050955373 -0.0063226309) to (15.244897 14.507907 17.014819) with tilt (-6.2671418 -0.44851921 -0.6424713)
  1 by 1 by 1 MPI processor grid
  restoring pair style lj/cut from restart
  restoring bond style harmonic from restart
  restoring angle style hybrid from restart
  restoring dihedral style harmonic from restart
  350 atoms
  375 bonds
  709 angles
  879 dihedrals
Finding 1-2 1-3 1-4 neighbors ...
  special bond factors lj:    0        0        1       
  special bond factors coul:  0        0        1       
     4 = max # of 1-2 neighbors
    10 = max # of 1-3 neighbors
    14 = max # of special neighbors
  special bonds CPU = 0.000 seconds
  read_restart CPU = 0.001 seconds
include ./input/angles_333U-50C-20-vasp.mod
angle_style hybrid fourier cosine/periodic
angle_coeff 1 fourier 58.020602        0.343737        0.374972        0.281246
angle_coeff 2 fourier 157.882480        0.343737        0.374972        0.281246
angle_coeff 3 fourier 83.380072        0.343737        0.374972        0.281246
angle_coeff 4 fourier 221.735285        0.343737        0.374972        0.281246
angle_coeff 5 fourier 114.246973        0.343737        0.374972        0.281246
angle_coeff 6 fourier 32.417871        0.343737        0.374972        0.281246
angle_coeff 7 fourier 90.420412        0.343737        0.374972        0.281246
angle_coeff 8 fourier 75.498766        0.343737        0.374972        0.281246
angle_coeff 9 cosine/periodic 88.853997              -1               3

# Negative deformation

variable delta equal -${up}*${len0}
variable delta equal -0.02*${len0}
variable delta equal -0.02*17.0211412617452
variable deltaxy equal -${up}*xy
variable deltaxy equal -0.02*xy
variable deltaxz equal -${up}*xz
variable deltaxz equal -0.02*xz
variable deltayz equal -${up}*yz
variable deltayz equal -0.02*yz
if "${dir} == 1" then    "change_box all x delta 0 ${delta} xy delta ${deltaxy} xz delta ${deltaxz} remap units box"
if "${dir} == 2" then    "change_box all y delta 0 ${delta} yz delta ${deltayz} remap units box"
if "${dir} == 3" then    "change_box all z delta 0 ${delta} remap units box"
change_box all z delta 0 ${delta} remap units box
change_box all z delta 0 -0.340422825234904 remap units box
Changing box ...
  triclinic box = (-0.0066912671 -0.0050955373 -0.0063226309) to (15.244897 14.507907 16.674396) with tilt (-6.2671418 -0.44851921 -0.6424713)
if "${dir} == 4" then    "change_box all yz delta ${delta} remap units box"
if "${dir} == 5" then    "change_box all xz delta ${delta} remap units box"
if "${dir} == 6" then    "change_box all xy delta ${delta} remap units box"

# Relax atoms positions

minimize ${etol} ${ftol} ${maxiter} ${maxeval}
minimize 0 ${ftol} ${maxiter} ${maxeval}
minimize 0 1e-10 ${maxiter} ${maxeval}
minimize 0 1e-10 100000 ${maxeval}
minimize 0 1e-10 100000 100000
Generated 6 of 6 mixed pair_coeff terms from arithmetic mixing rule
Neighbor list info ...
  update: every = 1 steps, delay = 0 steps, check = yes
  max neighbors/atom: 2000, page size: 100000
  master list distance cutoff = 7
  ghost atom cutoff = 7
  binsize = 3.5, bins = 7 5 5
  1 neighbor lists, perpetual/occasional/extra = 1 0 0
  (1) pair lj/cut, perpetual
      attributes: half, newton on
      pair build: half/bin/newton/tri
      stencil: half/bin/3d/tri
      bin: standard
WARNING: Inconsistent image flags
For more information see https://docs.lammps.org/err0027 (src/domain.cpp:1052)
Per MPI rank memory allocation (min/avg/max) = 19.51 | 19.51 | 19.51 Mbytes
   Step          Temp          E_pair         E_mol          TotEng         Press     
        88   0             -406.25884      431.31405      25.055204      40352.041    
       138   0             -425.19332      400.98055     -24.212767      20877.225    
Loop time of 0.0354267 on 1 procs for 50 steps with 350 atoms

107.9% CPU use with 1 MPI tasks x 1 OpenMP threads

Minimization stats:
  Stopping criterion = linesearch alpha is zero
  Energy initial, next-to-last, final = 
      25.0552035032043  -24.2127666539233  -24.2127666539233
  Force two-norm initial, final = 173.45642 20.248385
  Force max component initial, final = 18.975006 3.3264797
  Final line search alpha, max atom move = 1.5683069e-11 5.216941e-11
  Iterations, force evaluations = 50 176

MPI task timing breakdown:
Section |  min time  |  avg time  |  max time  |%varavg| %total
---------------------------------------------------------------
Pair    | 0.025858   | 0.025858   | 0.025858   |   0.0 | 72.99
Bond    | 0.0062575  | 0.0062575  | 0.0062575  |   0.0 | 17.66
Neigh   | 0.0019068  | 0.0019068  | 0.0019068  |   0.0 |  5.38
Comm    | 0.00079142 | 0.00079142 | 0.00079142 |   0.0 |  2.23
Output  | 0          | 0          | 0          |   0.0 |  0.00
Modify  | 0          | 0          | 0          |   0.0 |  0.00
Other   |            | 0.0006126  |            |       |  1.73

Nlocal:            350 ave         350 max         350 min
Histogram: 1 0 0 0 0 0 0 0 0 0
Nghost:           2202 ave        2202 max        2202 min
Histogram: 1 0 0 0 0 0 0 0 0 0
Neighs:          22488 ave       22488 max       22488 min
Histogram: 1 0 0 0 0 0 0 0 0 0

Total # of neighbors = 22488
Ave neighs/atom = 64.251429
Ave special neighs/atom = 6.1942857
Neighbor list builds = 1
Dangerous builds = 0

# Obtain new stress tensor

variable tmp equal pxx
variable pxx1 equal ${tmp}
variable pxx1 equal 17362.322232135
variable tmp equal pyy
variable pyy1 equal ${tmp}
variable pyy1 equal 19348.7709430117
variable tmp equal pzz
variable pzz1 equal ${tmp}
variable pzz1 equal 25920.5807446444
variable tmp equal pxy
variable pxy1 equal ${tmp}
variable pxy1 equal 2852.02058015209
variable tmp equal pxz
variable pxz1 equal ${tmp}
variable pxz1 equal 556.671523024926
variable tmp equal pyz
variable pyz1 equal ${tmp}
variable pyz1 equal -1491.0573466758

# Compute elastic constant from pressure tensor

variable C1neg equal ${d1}
variable C1neg equal 14.697275695293
variable C2neg equal ${d2}
variable C2neg equal 39.7606278030725
variable C3neg equal ${d3}
variable C3neg equal 69.3346886150305
variable C4neg equal ${d4}
variable C4neg equal 1.51570471442925
variable C5neg equal ${d5}
variable C5neg equal -9.03123553255962
variable C6neg equal ${d6}
variable C6neg equal 6.2585414924766

# Reset box and simulation parameters

clear
OMP_NUM_THREADS environment is not set. Defaulting to 1 thread.
  using 1 OpenMP thread(s) per MPI task
box tilt large

The 'box' command has been removed and will be ignored

read_restart restart_333U-50C-20-vasp.equil
Reading restart file ...
  restart file = 10 Sep 2025, LAMMPS = 10 Sep 2025
  restoring atom style full from restart
  triclinic box = (-0.0066912671 -0.0050955373 -0.0063226309) to (15.244897 14.507907 17.014819) with tilt (-6.2671418 -0.44851921 -0.6424713)
  1 by 1 by 1 MPI processor grid
  restoring pair style lj/cut from restart
  restoring bond style harmonic from restart
  restoring angle style hybrid from restart
  restoring dihedral style harmonic from restart
  350 atoms
  375 bonds
  709 angles
  879 dihedrals
Finding 1-2 1-3 1-4 neighbors ...
  special bond factors lj:    0        0        1       
  special bond factors coul:  0        0        1       
     4 = max # of 1-2 neighbors
    10 = max # of 1-3 neighbors
    14 = max # of special neighbors
  special bonds CPU = 0.000 seconds
  read_restart CPU = 0.001 seconds
include ./input/angles_333U-50C-20-vasp.mod
angle_style hybrid fourier cosine/periodic
angle_coeff 1 fourier 58.020602        0.343737        0.374972        0.281246
angle_coeff 2 fourier 157.882480        0.343737        0.374972        0.281246
angle_coeff 3 fourier 83.380072        0.343737        0.374972        0.281246
angle_coeff 4 fourier 221.735285        0.343737        0.374972        0.281246
angle_coeff 5 fourier 114.246973        0.343737        0.374972        0.281246
angle_coeff 6 fourier 32.417871        0.343737        0.374972        0.281246
angle_coeff 7 fourier 90.420412        0.343737        0.374972        0.281246
angle_coeff 8 fourier 75.498766        0.343737        0.374972        0.281246
angle_coeff 9 cosine/periodic 88.853997              -1               3

# Positive deformation

variable delta equal ${up}*${len0}
variable delta equal 0.02*${len0}
variable delta equal 0.02*17.0211412617452
variable deltaxy equal ${up}*xy
variable deltaxy equal 0.02*xy
variable deltaxz equal ${up}*xz
variable deltaxz equal 0.02*xz
variable deltayz equal ${up}*yz
variable deltayz equal 0.02*yz
if "${dir} == 1" then    "change_box all x delta 0 ${delta} xy delta ${deltaxy} xz delta ${deltaxz} remap units box"
if "${dir} == 2" then    "change_box all y delta 0 ${delta} yz delta ${deltayz} remap units box"
if "${dir} == 3" then    "change_box all z delta 0 ${delta} remap units box"
change_box all z delta 0 ${delta} remap units box
change_box all z delta 0 0.340422825234904 remap units box
Changing box ...
  triclinic box = (-0.0066912671 -0.0050955373 -0.0063226309) to (15.244897 14.507907 17.355241) with tilt (-6.2671418 -0.44851921 -0.6424713)
if "${dir} == 4" then    "change_box all yz delta ${delta} remap units box"
if "${dir} == 5" then    "change_box all xz delta ${delta} remap units box"
if "${dir} == 6" then    "change_box all xy delta ${delta} remap units box"

# Relax atoms positions

minimize ${etol} ${ftol} ${maxiter} ${maxeval}
minimize 0 ${ftol} ${maxiter} ${maxeval}
minimize 0 1e-10 ${maxiter} ${maxeval}
minimize 0 1e-10 100000 ${maxeval}
minimize 0 1e-10 100000 100000
Generated 6 of 6 mixed pair_coeff terms from arithmetic mixing rule
Neighbor list info ...
  update: every = 1 steps, delay = 0 steps, check = yes
  max neighbors/atom: 2000, page size: 100000
  master list distance cutoff = 7
  ghost atom cutoff = 7
  binsize = 3.5, bins = 7 5 5
  1 neighbor lists, perpetual/occasional/extra = 1 0 0
  (1) pair lj/cut, perpetual
      attributes: half, newton on
      pair build: half/bin/newton/tri
      stencil: half/bin/3d/tri
      bin: standard
WARNING: Inconsistent image flags
For more information see https://docs.lammps.org/err0027 (src/domain.cpp:1052)
Per MPI rank memory allocation (min/avg/max) = 19.51 | 19.51 | 19.51 Mbytes
   Step          Temp          E_pair         E_mol          TotEng         Press     
        88   0             -453.01831      450.55545     -2.4628607     -14093.983    
       111   0             -452.71229      416.88854     -35.823752      6457.9235    
Loop time of 0.0192917 on 1 procs for 23 steps with 350 atoms

107.9% CPU use with 1 MPI tasks x 1 OpenMP threads

Minimization stats:
  Stopping criterion = linesearch alpha is zero
  Energy initial, next-to-last, final = 
     -2.46286074657701  -35.8237518101065  -35.8237518101065
  Force two-norm initial, final = 186.60207 28.454581
  Force max component initial, final = 23.277058 3.1170075
  Final line search alpha, max atom move = 9.0314358e-12 2.8151053e-11
  Iterations, force evaluations = 23 106

MPI task timing breakdown:
Section |  min time  |  avg time  |  max time  |%varavg| %total
---------------------------------------------------------------
Pair    | 0.014726   | 0.014726   | 0.014726   |   0.0 | 76.33
Bond    | 0.0037871  | 0.0037871  | 0.0037871  |   0.0 | 19.63
Neigh   | 0          | 0          | 0          |   0.0 |  0.00
Comm    | 0.00044458 | 0.00044458 | 0.00044458 |   0.0 |  2.30
Output  | 0          | 0          | 0          |   0.0 |  0.00
Modify  | 0          | 0          | 0          |   0.0 |  0.00
Other   |            | 0.0003337  |            |       |  1.73

Nlocal:            350 ave         350 max         350 min
Histogram: 1 0 0 0 0 0 0 0 0 0
Nghost:           2150 ave        2150 max        2150 min
Histogram: 1 0 0 0 0 0 0 0 0 0
Neighs:          21595 ave       21595 max       21595 min
Histogram: 1 0 0 0 0 0 0 0 0 0

Total # of neighbors = 21595
Ave neighs/atom = 61.7
Ave special neighs/atom = 6.1942857
Neighbor list builds = 0
Dangerous builds = 0

# Obtain new stress tensor

variable tmp equal pe
variable e1 equal ${tmp}
variable e1 equal -35.8237518101065
variable tmp equal press
variable p1 equal ${tmp}
variable p1 equal 6457.92354459859
variable tmp equal pxx
variable pxx1 equal ${tmp}
variable pxx1 equal 8779.32468760921
variable tmp equal pyy
variable pyy1 equal ${tmp}
variable pyy1 equal 7362.90950364995
variable tmp equal pzz
variable pzz1 equal ${tmp}
variable pzz1 equal 3231.5364425366
variable tmp equal pxy
variable pxy1 equal ${tmp}
variable pxy1 equal 739.838427464229
variable tmp equal pxz
variable pxz1 equal ${tmp}
variable pxz1 equal 2499.86561902576
variable tmp equal pyz
variable pyz1 equal ${tmp}
variable pyz1 equal -2648.95703756234

# Compute elastic constant from pressure tensor

variable C1pos equal ${d1}
variable C1pos equal 28.2177120273359
variable C2pos equal ${d2}
variable C2pos equal 20.1686793937363
variable C3pos equal ${d3}
variable C3pos equal 44.1105328955085
variable C4pos equal ${d4}
variable C4pos equal 4.27379374000345
variable C5pos equal ${d5}
variable C5pos equal -0.684734947444551
variable C6pos equal ${d6}
variable C6pos equal 4.30236927096271

# Combine positive and negative

variable C1${dir} equal 0.5*(${C1neg}+${C1pos})
variable C13 equal 0.5*(${C1neg}+${C1pos})
variable C13 equal 0.5*(14.697275695293+${C1pos})
variable C13 equal 0.5*(14.697275695293+28.2177120273359)
variable C2${dir} equal 0.5*(${C2neg}+${C2pos})
variable C23 equal 0.5*(${C2neg}+${C2pos})
variable C23 equal 0.5*(39.7606278030725+${C2pos})
variable C23 equal 0.5*(39.7606278030725+20.1686793937363)
variable C3${dir} equal 0.5*(${C3neg}+${C3pos})
variable C33 equal 0.5*(${C3neg}+${C3pos})
variable C33 equal 0.5*(69.3346886150305+${C3pos})
variable C33 equal 0.5*(69.3346886150305+44.1105328955085)
variable C4${dir} equal 0.5*(${C4neg}+${C4pos})
variable C43 equal 0.5*(${C4neg}+${C4pos})
variable C43 equal 0.5*(1.51570471442925+${C4pos})
variable C43 equal 0.5*(1.51570471442925+4.27379374000345)
variable C5${dir} equal 0.5*(${C5neg}+${C5pos})
variable C53 equal 0.5*(${C5neg}+${C5pos})
variable C53 equal 0.5*(-9.03123553255962+${C5pos})
variable C53 equal 0.5*(-9.03123553255962+-0.684734947444551)
variable C6${dir} equal 0.5*(${C6neg}+${C6pos})
variable C63 equal 0.5*(${C6neg}+${C6pos})
variable C63 equal 0.5*(6.2585414924766+${C6pos})
variable C63 equal 0.5*(6.2585414924766+4.30236927096271)

# Delete dir to make sure it is not reused

variable dir delete

# uyz Perturbation

variable dir equal 4
include ./input/displace_333U-50C-20-vasp.mod
if "${dir} == 1" then    "variable len0 equal ${lx0}"
if "${dir} == 2" then    "variable len0 equal ${ly0}"
if "${dir} == 3" then    "variable len0 equal ${lz0}"
if "${dir} == 4" then    "variable len0 equal ${lz0}"
variable len0 equal ${lz0}
variable len0 equal 17.0211412617452
if "${dir} == 5" then    "variable len0 equal ${lz0}"
if "${dir} == 6" then    "variable len0 equal ${ly0}"

# Reset box and simulation parameters

clear
OMP_NUM_THREADS environment is not set. Defaulting to 1 thread.
  using 1 OpenMP thread(s) per MPI task
box tilt large

The 'box' command has been removed and will be ignored

read_restart restart_333U-50C-20-vasp.equil
Reading restart file ...
  restart file = 10 Sep 2025, LAMMPS = 10 Sep 2025
  restoring atom style full from restart
  triclinic box = (-0.0066912671 -0.0050955373 -0.0063226309) to (15.244897 14.507907 17.014819) with tilt (-6.2671418 -0.44851921 -0.6424713)
  1 by 1 by 1 MPI processor grid
  restoring pair style lj/cut from restart
  restoring bond style harmonic from restart
  restoring angle style hybrid from restart
  restoring dihedral style harmonic from restart
  350 atoms
  375 bonds
  709 angles
  879 dihedrals
Finding 1-2 1-3 1-4 neighbors ...
  special bond factors lj:    0        0        1       
  special bond factors coul:  0        0        1       
     4 = max # of 1-2 neighbors
    10 = max # of 1-3 neighbors
    14 = max # of special neighbors
  special bonds CPU = 0.000 seconds
  read_restart CPU = 0.001 seconds
include ./input/angles_333U-50C-20-vasp.mod
angle_style hybrid fourier cosine/periodic
angle_coeff 1 fourier 58.020602        0.343737        0.374972        0.281246
angle_coeff 2 fourier 157.882480        0.343737        0.374972        0.281246
angle_coeff 3 fourier 83.380072        0.343737        0.374972        0.281246
angle_coeff 4 fourier 221.735285        0.343737        0.374972        0.281246
angle_coeff 5 fourier 114.246973        0.343737        0.374972        0.281246
angle_coeff 6 fourier 32.417871        0.343737        0.374972        0.281246
angle_coeff 7 fourier 90.420412        0.343737        0.374972        0.281246
angle_coeff 8 fourier 75.498766        0.343737        0.374972        0.281246
angle_coeff 9 cosine/periodic 88.853997              -1               3

# Negative deformation

variable delta equal -${up}*${len0}
variable delta equal -0.02*${len0}
variable delta equal -0.02*17.0211412617452
variable deltaxy equal -${up}*xy
variable deltaxy equal -0.02*xy
variable deltaxz equal -${up}*xz
variable deltaxz equal -0.02*xz
variable deltayz equal -${up}*yz
variable deltayz equal -0.02*yz
if "${dir} == 1" then    "change_box all x delta 0 ${delta} xy delta ${deltaxy} xz delta ${deltaxz} remap units box"
if "${dir} == 2" then    "change_box all y delta 0 ${delta} yz delta ${deltayz} remap units box"
if "${dir} == 3" then    "change_box all z delta 0 ${delta} remap units box"
if "${dir} == 4" then    "change_box all yz delta ${delta} remap units box"
change_box all yz delta ${delta} remap units box
change_box all yz delta -0.340422825234904 remap units box
Changing box ...
  triclinic box = (-0.0066912671 -0.0050955373 -0.0063226309) to (15.244897 14.507907 17.014819) with tilt (-6.2671418 -0.44851921 -0.98289413)
if "${dir} == 5" then    "change_box all xz delta ${delta} remap units box"
if "${dir} == 6" then    "change_box all xy delta ${delta} remap units box"

# Relax atoms positions

minimize ${etol} ${ftol} ${maxiter} ${maxeval}
minimize 0 ${ftol} ${maxiter} ${maxeval}
minimize 0 1e-10 ${maxiter} ${maxeval}
minimize 0 1e-10 100000 ${maxeval}
minimize 0 1e-10 100000 100000
Generated 6 of 6 mixed pair_coeff terms from arithmetic mixing rule
Neighbor list info ...
  update: every = 1 steps, delay = 0 steps, check = yes
  max neighbors/atom: 2000, page size: 100000
  master list distance cutoff = 7
  ghost atom cutoff = 7
  binsize = 3.5, bins = 7 5 5
  1 neighbor lists, perpetual/occasional/extra = 1 0 0
  (1) pair lj/cut, perpetual
      attributes: half, newton on
      pair build: half/bin/newton/tri
      stencil: half/bin/3d/tri
      bin: standard
WARNING: Inconsistent image flags
For more information see https://docs.lammps.org/err0027 (src/domain.cpp:1052)
Per MPI rank memory allocation (min/avg/max) = 19.51 | 19.51 | 19.51 Mbytes
   Step          Temp          E_pair         E_mol          TotEng         Press     
        88   0             -433.98227      425.92372     -8.0585468      12203.393    
       102   0             -434.24848      412.69434     -21.554141      14406.154    
Loop time of 0.0164702 on 1 procs for 14 steps with 350 atoms

107.9% CPU use with 1 MPI tasks x 1 OpenMP threads

Minimization stats:
  Stopping criterion = linesearch alpha is zero
  Energy initial, next-to-last, final = 
     -8.05854681501376  -21.5541411383293  -21.5541411383293
  Force two-norm initial, final = 124.48115 25.889072
  Force max component initial, final = 14.397288 3.9378944
  Final line search alpha, max atom move = 1.4817141e-11 5.8348339e-11
  Iterations, force evaluations = 14 86

MPI task timing breakdown:
Section |  min time  |  avg time  |  max time  |%varavg| %total
---------------------------------------------------------------
Pair    | 0.012593   | 0.012593   | 0.012593   |   0.0 | 76.46
Bond    | 0.0031919  | 0.0031919  | 0.0031919  |   0.0 | 19.38
Neigh   | 0          | 0          | 0          |   0.0 |  0.00
Comm    | 0.00037449 | 0.00037449 | 0.00037449 |   0.0 |  2.27
Output  | 0          | 0          | 0          |   0.0 |  0.00
Modify  | 0          | 0          | 0          |   0.0 |  0.00
Other   |            | 0.0003113  |            |       |  1.89

Nlocal:            350 ave         350 max         350 min
Histogram: 1 0 0 0 0 0 0 0 0 0
Nghost:           2178 ave        2178 max        2178 min
Histogram: 1 0 0 0 0 0 0 0 0 0
Neighs:          22023 ave       22023 max       22023 min
Histogram: 1 0 0 0 0 0 0 0 0 0

Total # of neighbors = 22023
Ave neighs/atom = 62.922857
Ave special neighs/atom = 6.1942857
Neighbor list builds = 0
Dangerous builds = 0

# Obtain new stress tensor

variable tmp equal pxx
variable pxx1 equal ${tmp}
variable pxx1 equal 15043.8406336498
variable tmp equal pyy
variable pyy1 equal ${tmp}
variable pyy1 equal 13963.8588503143
variable tmp equal pzz
variable pzz1 equal ${tmp}
variable pzz1 equal 14210.7621466765
variable tmp equal pxy
variable pxy1 equal ${tmp}
variable pxy1 equal 1398.62224299802
variable tmp equal pxz
variable pxz1 equal ${tmp}
variable pxz1 equal 2438.4177314326
variable tmp equal pyz
variable pyz1 equal ${tmp}
variable pyz1 equal 2479.63969056162

# Compute elastic constant from pressure tensor

variable C1neg equal ${d1}
variable C1neg equal 3.104867702867
variable C2neg equal ${d2}
variable C2neg equal 12.8360673395855
variable C3neg equal ${d3}
variable C3neg equal 10.785595625191
variable C4neg equal ${d4}
variable C4neg equal 21.3691899006163
variable C5neg equal ${d5}
variable C5neg equal 0.377495509478749
variable C6neg equal ${d6}
variable C6neg equal -1.00845019329375

# Reset box and simulation parameters

clear
OMP_NUM_THREADS environment is not set. Defaulting to 1 thread.
  using 1 OpenMP thread(s) per MPI task
box tilt large

The 'box' command has been removed and will be ignored

read_restart restart_333U-50C-20-vasp.equil
Reading restart file ...
  restart file = 10 Sep 2025, LAMMPS = 10 Sep 2025
  restoring atom style full from restart
  triclinic box = (-0.0066912671 -0.0050955373 -0.0063226309) to (15.244897 14.507907 17.014819) with tilt (-6.2671418 -0.44851921 -0.6424713)
  1 by 1 by 1 MPI processor grid
  restoring pair style lj/cut from restart
  restoring bond style harmonic from restart
  restoring angle style hybrid from restart
  restoring dihedral style harmonic from restart
  350 atoms
  375 bonds
  709 angles
  879 dihedrals
Finding 1-2 1-3 1-4 neighbors ...
  special bond factors lj:    0        0        1       
  special bond factors coul:  0        0        1       
     4 = max # of 1-2 neighbors
    10 = max # of 1-3 neighbors
    14 = max # of special neighbors
  special bonds CPU = 0.000 seconds
  read_restart CPU = 0.001 seconds
include ./input/angles_333U-50C-20-vasp.mod
angle_style hybrid fourier cosine/periodic
angle_coeff 1 fourier 58.020602        0.343737        0.374972        0.281246
angle_coeff 2 fourier 157.882480        0.343737        0.374972        0.281246
angle_coeff 3 fourier 83.380072        0.343737        0.374972        0.281246
angle_coeff 4 fourier 221.735285        0.343737        0.374972        0.281246
angle_coeff 5 fourier 114.246973        0.343737        0.374972        0.281246
angle_coeff 6 fourier 32.417871        0.343737        0.374972        0.281246
angle_coeff 7 fourier 90.420412        0.343737        0.374972        0.281246
angle_coeff 8 fourier 75.498766        0.343737        0.374972        0.281246
angle_coeff 9 cosine/periodic 88.853997              -1               3

# Positive deformation

variable delta equal ${up}*${len0}
variable delta equal 0.02*${len0}
variable delta equal 0.02*17.0211412617452
variable deltaxy equal ${up}*xy
variable deltaxy equal 0.02*xy
variable deltaxz equal ${up}*xz
variable deltaxz equal 0.02*xz
variable deltayz equal ${up}*yz
variable deltayz equal 0.02*yz
if "${dir} == 1" then    "change_box all x delta 0 ${delta} xy delta ${deltaxy} xz delta ${deltaxz} remap units box"
if "${dir} == 2" then    "change_box all y delta 0 ${delta} yz delta ${deltayz} remap units box"
if "${dir} == 3" then    "change_box all z delta 0 ${delta} remap units box"
if "${dir} == 4" then    "change_box all yz delta ${delta} remap units box"
change_box all yz delta ${delta} remap units box
change_box all yz delta 0.340422825234904 remap units box
Changing box ...
  triclinic box = (-0.0066912671 -0.0050955373 -0.0063226309) to (15.244897 14.507907 17.014819) with tilt (-6.2671418 -0.44851921 -0.30204848)
if "${dir} == 5" then    "change_box all xz delta ${delta} remap units box"
if "${dir} == 6" then    "change_box all xy delta ${delta} remap units box"

# Relax atoms positions

minimize ${etol} ${ftol} ${maxiter} ${maxeval}
minimize 0 ${ftol} ${maxiter} ${maxeval}
minimize 0 1e-10 ${maxiter} ${maxeval}
minimize 0 1e-10 100000 ${maxeval}
minimize 0 1e-10 100000 100000
Generated 6 of 6 mixed pair_coeff terms from arithmetic mixing rule
Neighbor list info ...
  update: every = 1 steps, delay = 0 steps, check = yes
  max neighbors/atom: 2000, page size: 100000
  master list distance cutoff = 7
  ghost atom cutoff = 7
  binsize = 3.5, bins = 7 5 5
  1 neighbor lists, perpetual/occasional/extra = 1 0 0
  (1) pair lj/cut, perpetual
      attributes: half, newton on
      pair build: half/bin/newton/tri
      stencil: half/bin/3d/tri
      bin: standard
WARNING: Inconsistent image flags
For more information see https://docs.lammps.org/err0027 (src/domain.cpp:1052)
Per MPI rank memory allocation (min/avg/max) = 19.51 | 19.51 | 19.51 Mbytes
   Step          Temp          E_pair         E_mol          TotEng         Press     
        88   0             -429.18397      425.18458     -3.9993934      12684.924    
       152   0             -439.60389      390.78742     -48.816464      13021.497    
Loop time of 0.0367088 on 1 procs for 64 steps with 350 atoms

107.9% CPU use with 1 MPI tasks x 1 OpenMP threads

Minimization stats:
  Stopping criterion = linesearch alpha is zero
  Energy initial, next-to-last, final = 
     -3.99939338647062  -48.8164638153692  -48.8164638153692
  Force two-norm initial, final = 130.47479 17.486333
  Force max component initial, final = 14.242855 4.2862917
  Final line search alpha, max atom move = 3.1469494e-11 1.3488743e-10
  Iterations, force evaluations = 64 188

MPI task timing breakdown:
Section |  min time  |  avg time  |  max time  |%varavg| %total
---------------------------------------------------------------
Pair    | 0.025171   | 0.025171   | 0.025171   |   0.0 | 68.57
Bond    | 0.0062892  | 0.0062892  | 0.0062892  |   0.0 | 17.13
Neigh   | 0.0037527  | 0.0037527  | 0.0037527  |   0.0 | 10.22
Comm    | 0.000818   | 0.000818   | 0.000818   |   0.0 |  2.23
Output  | 0          | 0          | 0          |   0.0 |  0.00
Modify  | 0          | 0          | 0          |   0.0 |  0.00
Other   |            | 0.0006781  |            |       |  1.85

Nlocal:            350 ave         350 max         350 min
Histogram: 1 0 0 0 0 0 0 0 0 0
Nghost:           2172 ave        2172 max        2172 min
Histogram: 1 0 0 0 0 0 0 0 0 0
Neighs:          21973 ave       21973 max       21973 min
Histogram: 1 0 0 0 0 0 0 0 0 0

Total # of neighbors = 21973
Ave neighs/atom = 62.78
Ave special neighs/atom = 6.1942857
Neighbor list builds = 2
Dangerous builds = 0

# Obtain new stress tensor

variable tmp equal pe
variable e1 equal ${tmp}
variable e1 equal -48.8164638153692
variable tmp equal press
variable p1 equal ${tmp}
variable p1 equal 13021.4965532193
variable tmp equal pxx
variable pxx1 equal ${tmp}
variable pxx1 equal 11578.1744247871
variable tmp equal pyy
variable pyy1 equal ${tmp}
variable pyy1 equal 12942.5781120987
variable tmp equal pzz
variable pzz1 equal ${tmp}
variable pzz1 equal 14543.737122772
variable tmp equal pxy
variable pxy1 equal ${tmp}
variable pxy1 equal 3105.45776466881
variable tmp equal pxz
variable pxz1 equal ${tmp}
variable pxz1 equal -462.863160191469
variable tmp equal pyz
variable pyz1 equal ${tmp}
variable pyz1 equal -3349.05397825757

# Compute elastic constant from pressure tensor

variable C1pos equal ${d1}
variable C1pos equal 14.2234633414465
variable C2pos equal ${d2}
variable C2pos equal -7.72966364850749
variable C3pos equal ${d3}
variable C3pos equal -12.4504705056685
variable C4pos equal ${d4}
variable C4pos equal 7.7742784434796
variable C5pos equal ${d5}
variable C5pos equal 14.1289089486416
variable C6pos equal ${d6}
variable C6pos equal -7.5257274150602

# Combine positive and negative

variable C1${dir} equal 0.5*(${C1neg}+${C1pos})
variable C14 equal 0.5*(${C1neg}+${C1pos})
variable C14 equal 0.5*(3.104867702867+${C1pos})
variable C14 equal 0.5*(3.104867702867+14.2234633414465)
variable C2${dir} equal 0.5*(${C2neg}+${C2pos})
variable C24 equal 0.5*(${C2neg}+${C2pos})
variable C24 equal 0.5*(12.8360673395855+${C2pos})
variable C24 equal 0.5*(12.8360673395855+-7.72966364850749)
variable C3${dir} equal 0.5*(${C3neg}+${C3pos})
variable C34 equal 0.5*(${C3neg}+${C3pos})
variable C34 equal 0.5*(10.785595625191+${C3pos})
variable C34 equal 0.5*(10.785595625191+-12.4504705056685)
variable C4${dir} equal 0.5*(${C4neg}+${C4pos})
variable C44 equal 0.5*(${C4neg}+${C4pos})
variable C44 equal 0.5*(21.3691899006163+${C4pos})
variable C44 equal 0.5*(21.3691899006163+7.7742784434796)
variable C5${dir} equal 0.5*(${C5neg}+${C5pos})
variable C54 equal 0.5*(${C5neg}+${C5pos})
variable C54 equal 0.5*(0.377495509478749+${C5pos})
variable C54 equal 0.5*(0.377495509478749+14.1289089486416)
variable C6${dir} equal 0.5*(${C6neg}+${C6pos})
variable C64 equal 0.5*(${C6neg}+${C6pos})
variable C64 equal 0.5*(-1.00845019329375+${C6pos})
variable C64 equal 0.5*(-1.00845019329375+-7.5257274150602)

# Delete dir to make sure it is not reused

variable dir delete

# uxz Perturbation

variable dir equal 5
include ./input/displace_333U-50C-20-vasp.mod
if "${dir} == 1" then    "variable len0 equal ${lx0}"
if "${dir} == 2" then    "variable len0 equal ${ly0}"
if "${dir} == 3" then    "variable len0 equal ${lz0}"
if "${dir} == 4" then    "variable len0 equal ${lz0}"
if "${dir} == 5" then    "variable len0 equal ${lz0}"
variable len0 equal ${lz0}
variable len0 equal 17.0211412617452
if "${dir} == 6" then    "variable len0 equal ${ly0}"

# Reset box and simulation parameters

clear
OMP_NUM_THREADS environment is not set. Defaulting to 1 thread.
  using 1 OpenMP thread(s) per MPI task
box tilt large

The 'box' command has been removed and will be ignored

read_restart restart_333U-50C-20-vasp.equil
Reading restart file ...
  restart file = 10 Sep 2025, LAMMPS = 10 Sep 2025
  restoring atom style full from restart
  triclinic box = (-0.0066912671 -0.0050955373 -0.0063226309) to (15.244897 14.507907 17.014819) with tilt (-6.2671418 -0.44851921 -0.6424713)
  1 by 1 by 1 MPI processor grid
  restoring pair style lj/cut from restart
  restoring bond style harmonic from restart
  restoring angle style hybrid from restart
  restoring dihedral style harmonic from restart
  350 atoms
  375 bonds
  709 angles
  879 dihedrals
Finding 1-2 1-3 1-4 neighbors ...
  special bond factors lj:    0        0        1       
  special bond factors coul:  0        0        1       
     4 = max # of 1-2 neighbors
    10 = max # of 1-3 neighbors
    14 = max # of special neighbors
  special bonds CPU = 0.000 seconds
  read_restart CPU = 0.001 seconds
include ./input/angles_333U-50C-20-vasp.mod
angle_style hybrid fourier cosine/periodic
angle_coeff 1 fourier 58.020602        0.343737        0.374972        0.281246
angle_coeff 2 fourier 157.882480        0.343737        0.374972        0.281246
angle_coeff 3 fourier 83.380072        0.343737        0.374972        0.281246
angle_coeff 4 fourier 221.735285        0.343737        0.374972        0.281246
angle_coeff 5 fourier 114.246973        0.343737        0.374972        0.281246
angle_coeff 6 fourier 32.417871        0.343737        0.374972        0.281246
angle_coeff 7 fourier 90.420412        0.343737        0.374972        0.281246
angle_coeff 8 fourier 75.498766        0.343737        0.374972        0.281246
angle_coeff 9 cosine/periodic 88.853997              -1               3

# Negative deformation

variable delta equal -${up}*${len0}
variable delta equal -0.02*${len0}
variable delta equal -0.02*17.0211412617452
variable deltaxy equal -${up}*xy
variable deltaxy equal -0.02*xy
variable deltaxz equal -${up}*xz
variable deltaxz equal -0.02*xz
variable deltayz equal -${up}*yz
variable deltayz equal -0.02*yz
if "${dir} == 1" then    "change_box all x delta 0 ${delta} xy delta ${deltaxy} xz delta ${deltaxz} remap units box"
if "${dir} == 2" then    "change_box all y delta 0 ${delta} yz delta ${deltayz} remap units box"
if "${dir} == 3" then    "change_box all z delta 0 ${delta} remap units box"
if "${dir} == 4" then    "change_box all yz delta ${delta} remap units box"
if "${dir} == 5" then    "change_box all xz delta ${delta} remap units box"
change_box all xz delta ${delta} remap units box
change_box all xz delta -0.340422825234904 remap units box
Changing box ...
  triclinic box = (-0.0066912671 -0.0050955373 -0.0063226309) to (15.244897 14.507907 17.014819) with tilt (-6.2671418 -0.78894204 -0.6424713)
if "${dir} == 6" then    "change_box all xy delta ${delta} remap units box"

# Relax atoms positions

minimize ${etol} ${ftol} ${maxiter} ${maxeval}
minimize 0 ${ftol} ${maxiter} ${maxeval}
minimize 0 1e-10 ${maxiter} ${maxeval}
minimize 0 1e-10 100000 ${maxeval}
minimize 0 1e-10 100000 100000
Generated 6 of 6 mixed pair_coeff terms from arithmetic mixing rule
Neighbor list info ...
  update: every = 1 steps, delay = 0 steps, check = yes
  max neighbors/atom: 2000, page size: 100000
  master list distance cutoff = 7
  ghost atom cutoff = 7
  binsize = 3.5, bins = 7 5 5
  1 neighbor lists, perpetual/occasional/extra = 1 0 0
  (1) pair lj/cut, perpetual
      attributes: half, newton on
      pair build: half/bin/newton/tri
      stencil: half/bin/3d/tri
      bin: standard
WARNING: Inconsistent image flags
For more information see https://docs.lammps.org/err0027 (src/domain.cpp:1052)
Per MPI rank memory allocation (min/avg/max) = 19.51 | 19.51 | 19.51 Mbytes
   Step          Temp          E_pair         E_mol          TotEng         Press     
        88   0             -429.5893       426.82229     -2.7670081      12648.462    
       140   0             -441.70908      396.81952     -44.889559      12466.343    
Loop time of 0.0302451 on 1 procs for 52 steps with 350 atoms

107.9% CPU use with 1 MPI tasks x 1 OpenMP threads

Minimization stats:
  Stopping criterion = linesearch alpha is zero
  Energy initial, next-to-last, final = 
       -2.767008143699  -44.8895588815798  -44.8895588815798
  Force two-norm initial, final = 127.15189 20.023437
  Force max component initial, final = 15.047389 2.5519412
  Final line search alpha, max atom move = 2.2963784e-11 5.8602225e-11
  Iterations, force evaluations = 52 163

MPI task timing breakdown:
Section |  min time  |  avg time  |  max time  |%varavg| %total
---------------------------------------------------------------
Pair    | 0.021616   | 0.021616   | 0.021616   |   0.0 | 71.47
Bond    | 0.0054145  | 0.0054145  | 0.0054145  |   0.0 | 17.90
Neigh   | 0.0020333  | 0.0020333  | 0.0020333  |   0.0 |  6.72
Comm    | 0.0006537  | 0.0006537  | 0.0006537  |   0.0 |  2.16
Output  | 0          | 0          | 0          |   0.0 |  0.00
Modify  | 0          | 0          | 0          |   0.0 |  0.00
Other   |            | 0.0005277  |            |       |  1.74

Nlocal:            350 ave         350 max         350 min
Histogram: 1 0 0 0 0 0 0 0 0 0
Nghost:           2158 ave        2158 max        2158 min
Histogram: 1 0 0 0 0 0 0 0 0 0
Neighs:          22007 ave       22007 max       22007 min
Histogram: 1 0 0 0 0 0 0 0 0 0

Total # of neighbors = 22007
Ave neighs/atom = 62.877143
Ave special neighs/atom = 6.1942857
Neighbor list builds = 1
[...]
angle_coeff 4 fourier 221.735285        0.343737        0.374972        0.281246
angle_coeff 5 fourier 114.246973        0.343737        0.374972        0.281246
angle_coeff 6 fourier 32.417871        0.343737        0.374972        0.281246
angle_coeff 7 fourier 90.420412        0.343737        0.374972        0.281246
angle_coeff 8 fourier 75.498766        0.343737        0.374972        0.281246
angle_coeff 9 cosine/periodic 88.853997              -1               3

# Negative deformation

variable delta equal -${up}*${len0}
variable delta equal -0.02*${len0}
variable delta equal -0.02*14.5130020745405
variable deltaxy equal -${up}*xy
variable deltaxy equal -0.02*xy
variable deltaxz equal -${up}*xz
variable deltaxz equal -0.02*xz
variable deltayz equal -${up}*yz
variable deltayz equal -0.02*yz
if "${dir} == 1" then    "change_box all x delta 0 ${delta} xy delta ${deltaxy} xz delta ${deltaxz} remap units box"
if "${dir} == 2" then    "change_box all y delta 0 ${delta} yz delta ${deltayz} remap units box"
if "${dir} == 3" then    "change_box all z delta 0 ${delta} remap units box"
if "${dir} == 4" then    "change_box all yz delta ${delta} remap units box"
if "${dir} == 5" then    "change_box all xz delta ${delta} remap units box"
if "${dir} == 6" then    "change_box all xy delta ${delta} remap units box"
change_box all xy delta ${delta} remap units box
change_box all xy delta -0.29026004149081 remap units box
Changing box ...
  triclinic box = (-0.0066912671 -0.0050955373 -0.0063226309) to (15.244897 14.507907 17.014819) with tilt (-6.5574018 -0.44851921 -0.6424713)

# Relax atoms positions

minimize ${etol} ${ftol} ${maxiter} ${maxeval}
minimize 0 ${ftol} ${maxiter} ${maxeval}
minimize 0 1e-10 ${maxiter} ${maxeval}
minimize 0 1e-10 100000 ${maxeval}
minimize 0 1e-10 100000 100000
Generated 6 of 6 mixed pair_coeff terms from arithmetic mixing rule
Neighbor list info ...
  update: every = 1 steps, delay = 0 steps, check = yes
  max neighbors/atom: 2000, page size: 100000
  master list distance cutoff = 7
  ghost atom cutoff = 7
  binsize = 3.5, bins = 7 5 5
  1 neighbor lists, perpetual/occasional/extra = 1 0 0
  (1) pair lj/cut, perpetual
      attributes: half, newton on
      pair build: half/bin/newton/tri
      stencil: half/bin/3d/tri
      bin: standard
WARNING: Inconsistent image flags
For more information see https://docs.lammps.org/err0027 (src/domain.cpp:1052)
Per MPI rank memory allocation (min/avg/max) = 19.51 | 19.51 | 19.51 Mbytes
   Step          Temp          E_pair         E_mol          TotEng         Press     
        88   0             -431.93146      427.02222     -4.909235       12289.841    
       140   0             -443.57081      401.09139     -42.479424      11718.472    
Loop time of 0.0358707 on 1 procs for 52 steps with 350 atoms

107.9% CPU use with 1 MPI tasks x 1 OpenMP threads

Minimization stats:
  Stopping criterion = linesearch alpha is zero
  Energy initial, next-to-last, final = 
     -4.90923497148231  -42.4794240133215  -42.4794240133215
  Force two-norm initial, final = 129.14455 20.324235
  Force max component initial, final = 15.59093 3.6450401
  Final line search alpha, max atom move = 2.4088308e-11 8.7802849e-11
  Iterations, force evaluations = 52 162

MPI task timing breakdown:
Section |  min time  |  avg time  |  max time  |%varavg| %total
---------------------------------------------------------------
Pair    | 0.025615   | 0.025615   | 0.025615   |   0.0 | 71.41
Bond    | 0.0064965  | 0.0064965  | 0.0064965  |   0.0 | 18.11
Neigh   | 0.0022908  | 0.0022908  | 0.0022908  |   0.0 |  6.39
Comm    | 0.00083943 | 0.00083943 | 0.00083943 |   0.0 |  2.34
Output  | 0          | 0          | 0          |   0.0 |  0.00
Modify  | 0          | 0          | 0          |   0.0 |  0.00
Other   |            | 0.0006287  |            |       |  1.75

Nlocal:            350 ave         350 max         350 min
Histogram: 1 0 0 0 0 0 0 0 0 0
Nghost:           2186 ave        2186 max        2186 min
Histogram: 1 0 0 0 0 0 0 0 0 0
Neighs:          22048 ave       22048 max       22048 min
Histogram: 1 0 0 0 0 0 0 0 0 0

Total # of neighbors = 22048
Ave neighs/atom = 62.994286
Ave special neighs/atom = 6.1942857
Neighbor list builds = 1
Dangerous builds = 0

# Obtain new stress tensor

variable tmp equal pxx
variable pxx1 equal ${tmp}
variable pxx1 equal 10469.0503090857
variable tmp equal pyy
variable pyy1 equal ${tmp}
variable pyy1 equal 11753.5754535624
variable tmp equal pzz
variable pzz1 equal ${tmp}
variable pzz1 equal 12932.7895549639
variable tmp equal pxy
variable pxy1 equal ${tmp}
variable pxy1 equal 7336.33760016358
variable tmp equal pxz
variable pxz1 equal ${tmp}
variable pxz1 equal 316.753294761321
variable tmp equal pyz
variable pyz1 equal ${tmp}
variable pyz1 equal -692.587666578681

# Compute elastic constant from pressure tensor

variable C1neg equal ${d1}
variable C1neg equal -19.7690839199535
variable C2neg equal ${d2}
variable C2neg equal 1.784650355826
variable C3neg equal ${d3}
variable C3neg equal 4.395732666628
variable C4neg equal ${d4}
variable C4neg equal 5.50805311491485
variable C5neg equal ${d5}
variable C5neg equal -10.2308266738776
variable C6neg equal ${d6}
variable C6neg equal 28.6801265925341

# Reset box and simulation parameters

clear
OMP_NUM_THREADS environment is not set. Defaulting to 1 thread.
  using 1 OpenMP thread(s) per MPI task
box tilt large

The 'box' command has been removed and will be ignored

read_restart restart_333U-50C-20-vasp.equil
Reading restart file ...
  restart file = 10 Sep 2025, LAMMPS = 10 Sep 2025
  restoring atom style full from restart
  triclinic box = (-0.0066912671 -0.0050955373 -0.0063226309) to (15.244897 14.507907 17.014819) with tilt (-6.2671418 -0.44851921 -0.6424713)
  1 by 1 by 1 MPI processor grid
  restoring pair style lj/cut from restart
  restoring bond style harmonic from restart
  restoring angle style hybrid from restart
  restoring dihedral style harmonic from restart
  350 atoms
  375 bonds
  709 angles
  879 dihedrals
Finding 1-2 1-3 1-4 neighbors ...
  special bond factors lj:    0        0        1       
  special bond factors coul:  0        0        1       
     4 = max # of 1-2 neighbors
    10 = max # of 1-3 neighbors
    14 = max # of special neighbors
  special bonds CPU = 0.000 seconds
  read_restart CPU = 0.001 seconds
include ./input/angles_333U-50C-20-vasp.mod
angle_style hybrid fourier cosine/periodic
angle_coeff 1 fourier 58.020602        0.343737        0.374972        0.281246
angle_coeff 2 fourier 157.882480        0.343737        0.374972        0.281246
angle_coeff 3 fourier 83.380072        0.343737        0.374972        0.281246
angle_coeff 4 fourier 221.735285        0.343737        0.374972        0.281246
angle_coeff 5 fourier 114.246973        0.343737        0.374972        0.281246
angle_coeff 6 fourier 32.417871        0.343737        0.374972        0.281246
angle_coeff 7 fourier 90.420412        0.343737        0.374972        0.281246
angle_coeff 8 fourier 75.498766        0.343737        0.374972        0.281246
angle_coeff 9 cosine/periodic 88.853997              -1               3

# Positive deformation

variable delta equal ${up}*${len0}
variable delta equal 0.02*${len0}
variable delta equal 0.02*14.5130020745405
variable deltaxy equal ${up}*xy
variable deltaxy equal 0.02*xy
variable deltaxz equal ${up}*xz
variable deltaxz equal 0.02*xz
variable deltayz equal ${up}*yz
variable deltayz equal 0.02*yz
if "${dir} == 1" then    "change_box all x delta 0 ${delta} xy delta ${deltaxy} xz delta ${deltaxz} remap units box"
if "${dir} == 2" then    "change_box all y delta 0 ${delta} yz delta ${deltayz} remap units box"
if "${dir} == 3" then    "change_box all z delta 0 ${delta} remap units box"
if "${dir} == 4" then    "change_box all yz delta ${delta} remap units box"
if "${dir} == 5" then    "change_box all xz delta ${delta} remap units box"
if "${dir} == 6" then    "change_box all xy delta ${delta} remap units box"
change_box all xy delta ${delta} remap units box
change_box all xy delta 0.29026004149081 remap units box
Changing box ...
  triclinic box = (-0.0066912671 -0.0050955373 -0.0063226309) to (15.244897 14.507907 17.014819) with tilt (-5.9768818 -0.44851921 -0.6424713)

# Relax atoms positions

minimize ${etol} ${ftol} ${maxiter} ${maxeval}
minimize 0 ${ftol} ${maxiter} ${maxeval}
minimize 0 1e-10 ${maxiter} ${maxeval}
minimize 0 1e-10 100000 ${maxeval}
minimize 0 1e-10 100000 100000
Generated 6 of 6 mixed pair_coeff terms from arithmetic mixing rule
Neighbor list info ...
  update: every = 1 steps, delay = 0 steps, check = yes
  max neighbors/atom: 2000, page size: 100000
  master list distance cutoff = 7
  ghost atom cutoff = 7
  binsize = 3.5, bins = 7 5 5
  1 neighbor lists, perpetual/occasional/extra = 1 0 0
  (1) pair lj/cut, perpetual
      attributes: half, newton on
      pair build: half/bin/newton/tri
      stencil: half/bin/3d/tri
      bin: standard
WARNING: Inconsistent image flags
For more information see https://docs.lammps.org/err0027 (src/domain.cpp:1052)
Per MPI rank memory allocation (min/avg/max) = 19.51 | 19.51 | 19.51 Mbytes
   Step          Temp          E_pair         E_mol          TotEng         Press     
        88   0             -431.05469      422.5973      -8.4573927      12609.205    
       120   0             -448.21162      410.41176     -37.799857      11508.228    
Loop time of 0.028999 on 1 procs for 32 steps with 350 atoms

107.9% CPU use with 1 MPI tasks x 1 OpenMP threads

Minimization stats:
  Stopping criterion = linesearch alpha is zero
  Energy initial, next-to-last, final = 
     -8.45739271123171  -37.7998572190974  -37.7998572190974
  Force two-norm initial, final = 126.8988 32.047277
  Force max component initial, final = 15.598518 5.3853349
  Final line search alpha, max atom move = 7.1889908e-12 3.8715123e-11
  Iterations, force evaluations = 32 122

MPI task timing breakdown:
Section |  min time  |  avg time  |  max time  |%varavg| %total
---------------------------------------------------------------
Pair    | 0.020485   | 0.020485   | 0.020485   |   0.0 | 70.64
Bond    | 0.0050712  | 0.0050712  | 0.0050712  |   0.0 | 17.49
Neigh   | 0.0022977  | 0.0022977  | 0.0022977  |   0.0 |  7.92
Comm    | 0.00063476 | 0.00063476 | 0.00063476 |   0.0 |  2.19
Output  | 0          | 0          | 0          |   0.0 |  0.00
Modify  | 0          | 0          | 0          |   0.0 |  0.00
Other   |            | 0.0005105  |            |       |  1.76

Nlocal:            350 ave         350 max         350 min
Histogram: 1 0 0 0 0 0 0 0 0 0
Nghost:           2154 ave        2154 max        2154 min
Histogram: 1 0 0 0 0 0 0 0 0 0
Neighs:          22038 ave       22038 max       22038 min
Histogram: 1 0 0 0 0 0 0 0 0 0

Total # of neighbors = 22038
Ave neighs/atom = 62.965714
Ave special neighs/atom = 6.1942857
Neighbor list builds = 1
Dangerous builds = 0

# Obtain new stress tensor

variable tmp equal pe
variable e1 equal ${tmp}
variable e1 equal -37.7998572190974
variable tmp equal press
variable p1 equal ${tmp}
variable p1 equal 11508.2276532546
variable tmp equal pxx
variable pxx1 equal ${tmp}
variable pxx1 equal 11323.239852619
variable tmp equal pyy
variable pyy1 equal ${tmp}
variable pyy1 equal 12279.1128374337
variable tmp equal pzz
variable pzz1 equal ${tmp}
variable pzz1 equal 10922.3302697112
variable tmp equal pxy
variable pxy1 equal ${tmp}
variable pxy1 equal 1858.87527871312
variable tmp equal pxz
variable pxz1 equal ${tmp}
variable pxz1 equal 1492.15245662822
variable tmp equal pyz
variable pyz1 equal ${tmp}
variable pyz1 equal -599.107656305172

# Compute elastic constant from pressure tensor

variable C1pos equal ${d1}
variable C1pos equal 15.498136202287
variable C2pos equal ${d2}
variable C2pos equal -4.4123372751825
variable C3pos equal ${d3}
variable C3pos equal 5.6565637596355
variable C4pos equal ${d4}
variable C4pos equal -5.97545316628239
variable C5pos equal ${d5}
variable C5pos equal 4.35383086454315
variable C6pos equal ${d6}
variable C6pos equal -1.29281498528175

# Combine positive and negative

variable C1${dir} equal 0.5*(${C1neg}+${C1pos})
variable C16 equal 0.5*(${C1neg}+${C1pos})
variable C16 equal 0.5*(-19.7690839199535+${C1pos})
variable C16 equal 0.5*(-19.7690839199535+15.498136202287)
variable C2${dir} equal 0.5*(${C2neg}+${C2pos})
variable C26 equal 0.5*(${C2neg}+${C2pos})
variable C26 equal 0.5*(1.784650355826+${C2pos})
variable C26 equal 0.5*(1.784650355826+-4.4123372751825)
variable C3${dir} equal 0.5*(${C3neg}+${C3pos})
variable C36 equal 0.5*(${C3neg}+${C3pos})
variable C36 equal 0.5*(4.395732666628+${C3pos})
variable C36 equal 0.5*(4.395732666628+5.6565637596355)
variable C4${dir} equal 0.5*(${C4neg}+${C4pos})
variable C46 equal 0.5*(${C4neg}+${C4pos})
variable C46 equal 0.5*(5.50805311491485+${C4pos})
variable C46 equal 0.5*(5.50805311491485+-5.97545316628239)
variable C5${dir} equal 0.5*(${C5neg}+${C5pos})
variable C56 equal 0.5*(${C5neg}+${C5pos})
variable C56 equal 0.5*(-10.2308266738776+${C5pos})
variable C56 equal 0.5*(-10.2308266738776+4.35383086454315)
variable C6${dir} equal 0.5*(${C6neg}+${C6pos})
variable C66 equal 0.5*(${C6neg}+${C6pos})
variable C66 equal 0.5*(28.6801265925341+${C6pos})
variable C66 equal 0.5*(28.6801265925341+-1.29281498528175)

# Delete dir to make sure it is not reused

variable dir delete

# Output final values

variable C11all equal ${C11}
variable C11all equal 63.8322169839662
variable C22all equal ${C22}
variable C22all equal 66.9872601865696
variable C33all equal ${C33}
variable C33all equal 56.7226107552695

variable C12all equal 0.5*(${C12}+${C21})
variable C12all equal 0.5*(34.37463091127+${C21})
variable C12all equal 0.5*(34.37463091127+24.1269858415697)
variable C13all equal 0.5*(${C13}+${C31})
variable C13all equal 0.5*(21.4574938613145+${C31})
variable C13all equal 0.5*(21.4574938613145+31.971568098628)
variable C23all equal 0.5*(${C23}+${C32})
variable C23all equal 0.5*(29.9646535984044+${C32})
variable C23all equal 0.5*(29.9646535984044+28.6774182715093)

variable C44all equal ${C44}
variable C44all equal 14.571734172048
variable C55all equal ${C55}
variable C55all equal 12.2602527483316
variable C66all equal ${C66}
variable C66all equal 13.6936558036262

variable C14all equal 0.5*(${C14}+${C41})
variable C14all equal 0.5*(8.66416552215675+${C41})
variable C14all equal 0.5*(8.66416552215675+1.10658988652575)
variable C15all equal 0.5*(${C15}+${C51})
variable C15all equal 0.5*(-2.851979157931+${C51})
variable C15all equal 0.5*(-2.851979157931+-1.65173596674449)
variable C16all equal 0.5*(${C16}+${C61})
variable C16all equal 0.5*(-2.13547385883325+${C61})
variable C16all equal 0.5*(-2.13547385883325+1.76855618349565)

variable C24all equal 0.5*(${C24}+${C42})
variable C24all equal 0.5*(2.553201845539+${C42})
variable C24all equal 0.5*(2.553201845539+-7.81725410954515)
variable C25all equal 0.5*(${C25}+${C52})
variable C25all equal 0.5*(-1.40680351447025+${C52})
variable C25all equal 0.5*(-1.40680351447025+5.80529332348357)
variable C26all equal 0.5*(${C26}+${C62})
variable C26all equal 0.5*(-1.31384345967825+${C62})
variable C26all equal 0.5*(-1.31384345967825+-3.42991294371515)

variable C34all equal 0.5*(${C34}+${C43})
variable C34all equal 0.5*(-0.83243744023875+${C43})
variable C34all equal 0.5*(-0.83243744023875+2.89474922721635)
variable C35all equal 0.5*(${C35}+${C53})
variable C35all equal 0.5*(3.6636198502205+${C53})
variable C35all equal 0.5*(3.6636198502205+-4.85798524000209)
variable C36all equal 0.5*(${C36}+${C63})
variable C36all equal 0.5*(5.02614821313175+${C63})
variable C36all equal 0.5*(5.02614821313175+5.28045538171965)

variable C45all equal 0.5*(${C45}+${C54})
variable C45all equal 0.5*(4.68271548237343+${C54})
variable C45all equal 0.5*(4.68271548237343+7.25320222906017)
variable C46all equal 0.5*(${C46}+${C64})
variable C46all equal 0.5*(-0.23370002568377+${C64})
variable C46all equal 0.5*(-0.23370002568377+-4.26708880417698)
variable C56all equal 0.5*(${C56}+${C65})
variable C56all equal 0.5*(-2.93849790466722+${C65})
variable C56all equal 0.5*(-2.93849790466722+1.0902381167116)

# Average moduli for cubic crystals

variable C11cubic equal (${C11all}+${C22all}+${C33all})/3.0
variable C11cubic equal (63.8322169839662+${C22all}+${C33all})/3.0
variable C11cubic equal (63.8322169839662+66.9872601865696+${C33all})/3.0
variable C11cubic equal (63.8322169839662+66.9872601865696+56.7226107552695)/3.0
variable C12cubic equal (${C12all}+${C13all}+${C23all})/3.0
variable C12cubic equal (29.2508083764199+${C13all}+${C23all})/3.0
variable C12cubic equal (29.2508083764199+26.7145309799713+${C23all})/3.0
variable C12cubic equal (29.2508083764199+26.7145309799713+29.3210359349568)/3.0
variable C44cubic equal (${C44all}+${C55all}+${C66all})/3.0
variable C44cubic equal (14.571734172048+${C55all}+${C66all})/3.0
variable C44cubic equal (14.571734172048+12.2602527483316+${C66all})/3.0
variable C44cubic equal (14.571734172048+12.2602527483316+13.6936558036262)/3.0

variable bulkmodulus equal (${C11cubic}+2*${C12cubic})/3.0
variable bulkmodulus equal (62.5140293086018+2*${C12cubic})/3.0
variable bulkmodulus equal (62.5140293086018+2*28.4287917637827)/3.0
variable shearmodulus1 equal ${C44cubic}
variable shearmodulus1 equal 13.5085475746686
variable shearmodulus2 equal (${C11cubic}-${C12cubic})/2.0
variable shearmodulus2 equal (62.5140293086018-${C12cubic})/2.0
variable shearmodulus2 equal (62.5140293086018-28.4287917637827)/2.0
variable poissonratio equal 1.0/(1.0+${C11cubic}/${C12cubic})
variable poissonratio equal 1.0/(1.0+62.5140293086018/${C12cubic})
variable poissonratio equal 1.0/(1.0+62.5140293086018/28.4287917637827)

print "Elastic Constant 1 1 = ${C11all}"
Elastic Constant 1 1 = 63.8322169839662
print "Elastic Constant 2 2 = ${C22all}"
Elastic Constant 2 2 = 66.9872601865696
print "Elastic Constant 3 3 = ${C33all}"
Elastic Constant 3 3 = 56.7226107552695

print "Elastic Constant 1 2 = ${C12all}"
Elastic Constant 1 2 = 29.2508083764199
print "Elastic Constant 1 3 = ${C13all}"
Elastic Constant 1 3 = 26.7145309799713
print "Elastic Constant 2 3 = ${C23all}"
Elastic Constant 2 3 = 29.3210359349568

print "Elastic Constant 4 4 = ${C44all}"
Elastic Constant 4 4 = 14.571734172048
print "Elastic Constant 5 5 = ${C55all}"
Elastic Constant 5 5 = 12.2602527483316
print "Elastic Constant 6 6 = ${C66all}"
Elastic Constant 6 6 = 13.6936558036262

print "Elastic Constant 1 4 = ${C14all}"
Elastic Constant 1 4 = 4.88537770434125
print "Elastic Constant 1 5 = ${C15all}"
Elastic Constant 1 5 = -2.25185756233775
print "Elastic Constant 1 6 = ${C16all}"
Elastic Constant 1 6 = -0.1834588376688

print "Elastic Constant 2 4 = ${C24all}"
Elastic Constant 2 4 = -2.63202613200307
print "Elastic Constant 2 5 = ${C25all}"
Elastic Constant 2 5 = 2.19924490450666
print "Elastic Constant 2 6 = ${C26all}"
Elastic Constant 2 6 = -2.3718782016967

print "Elastic Constant 3 4 = ${C34all}"
Elastic Constant 3 4 = 1.0311558934888
print "Elastic Constant 3 5 = ${C35all}"
Elastic Constant 3 5 = -0.597182694890795
print "Elastic Constant 3 6 = ${C36all}"
Elastic Constant 3 6 = 5.1533017974257

print "Elastic Constant 4 5 = ${C45all}"
Elastic Constant 4 5 = 5.9679588557168
print "Elastic Constant 4 6 = ${C46all}"
Elastic Constant 4 6 = -2.25039441493037
print "Elastic Constant 5 6 = ${C56all}"
Elastic Constant 5 6 = -0.92412989397781

print "Bulk Modulus = ${bulkmodulus} ${cunits}"
Bulk Modulus = 39.7905376120557 GPa
print "Shear Modulus 1 = ${shearmodulus1} ${cunits}"
Shear Modulus 1 = 13.5085475746686 GPa
print "Shear Modulus 2 = ${shearmodulus2} ${cunits}"
Shear Modulus 2 = 17.0426187724095 GPa
print "Poisson Ratio = ${poissonratio}"
Poisson Ratio = 0.312600724593261

variable rho equal density
print "density (g/cm^3) = ${rho}"
density (g/cm^3) = 1.72385454162393
Total wall time: 0:00:00
