units           real
atom_style      full
boundary        p p p

pair_style      lj/cut 5.000
bond_style      harmonic
angle_style     hybrid fourier cosine/periodic
dihedral_style  harmonic

dielectric      1.0
pair_modify     tail yes mix arithmetic
special_bonds   lj/coul 0.0 0.0 1.0
box tilt        large

The 'box' command has been removed and will be ignored

read_data       ./dat/data.333U-50C-1-vasp
Reading data file ...
  triclinic box = (0 0 0) to (17.141708 12.825146 17.586657) with tilt (-8.381958 0.030516 0.302718)
WARNING: Triclinic box skew is large. LAMMPS will run inefficiently. (src/domain.cpp:221)
  1 by 1 by 1 MPI processor grid
  reading atoms ...
  362 atoms
  scanning bonds ...
  4 = max bonds/atom
  scanning angles ...
  6 = max angles/atom
  scanning dihedrals ...
  24 = max dihedrals/atom
  triclinic box = (0 0 0) to (17.141708 12.825146 17.586657) with tilt (-8.381958 0.030516 0.302718)
WARNING: Triclinic box skew is large. LAMMPS will run inefficiently. (src/domain.cpp:221)
  1 by 1 by 1 MPI processor grid
  reading bonds ...
  387 bonds
  reading angles ...
  733 angles
  reading dihedrals ...
  915 dihedrals
Finding 1-2 1-3 1-4 neighbors ...
  special bond factors lj:    0        0        1       
  special bond factors coul:  0        0        1       
     4 = max # of 1-2 neighbors
     8 = max # of 1-3 neighbors
    12 = max # of special neighbors
  special bonds CPU = 0.000 seconds
  read_data CPU = 0.008 seconds

#### Atom Groupings ####
group           fram     id   1:362
362 atoms in group fram
#### END Atom Groupings ####

compute am all property/atom mass
dump        atom_pos all extxyz 100 ./output/333U-50C-1-vasp.lammpstrj
dump_modify atom_pos element Si C H O mass yes
thermo          1000
thermo_style    custom step temp pe ke etotal press vol density

variable up equal 2e-2
variable cfac equal 1.0e-4
variable cunits string GPa

# Define minimization parameters
variable etol equal 0.0
variable ftol equal 1.0e-10
variable maxiter equal 100000
variable maxeval equal 100000
variable dmax equal 1.0e-2

variable temp equal 300.0
variable thermal_damp index 100.0
variable pressure_damp index 500.0

fix relax all box/relax aniso 0.0 vmax 0.001
unfix relax
minimize ${etol} ${ftol} ${maxiter} ${maxeval}
minimize 0 ${ftol} ${maxiter} ${maxeval}
minimize 0 1e-10 ${maxiter} ${maxeval}
minimize 0 1e-10 100000 ${maxeval}
minimize 0 1e-10 100000 100000
Generated 6 of 6 mixed pair_coeff terms from arithmetic mixing rule
Neighbor list info ...
  update: every = 1 steps, delay = 0 steps, check = yes
  max neighbors/atom: 2000, page size: 100000
  master list distance cutoff = 7
  ghost atom cutoff = 7
  binsize = 3.5, bins = 8 4 6
  1 neighbor lists, perpetual/occasional/extra = 1 0 0
  (1) pair lj/cut, perpetual
      attributes: half, newton on
      pair build: half/bin/newton/tri
      stencil: half/bin/3d/tri
      bin: standard
WARNING: Inconsistent image flags
For more information see https://docs.lammps.org/err0027 (src/domain.cpp:1052)
Per MPI rank memory allocation (min/avg/max) = 17.52 | 17.52 | 17.52 Mbytes
   Step          Temp          PotEng         KinEng         TotEng         Press          Volume        Density    
         0   0              1448.4416      0              1448.4416      98400.206      3866.337       1.7039137    
        85   0              123.34189      0              123.34189      9943.1396      3866.337       1.7039137    
Loop time of 0.0497541 on 1 procs for 85 steps with 362 atoms

100.0% CPU use with 1 MPI tasks x 1 OpenMP threads

Minimization stats:
  Stopping criterion = linesearch alpha is zero
  Energy initial, next-to-last, final = 
      1448.44158742362   123.341888102568   123.341888102568
  Force two-norm initial, final = 879.33652 18.39808
  Force max component initial, final = 92.471648 2.2949082
  Final line search alpha, max atom move = 2.665007e-11 6.1159464e-11
  Iterations, force evaluations = 85 221

MPI task timing breakdown:
Section |  min time  |  avg time  |  max time  |%varavg| %total
---------------------------------------------------------------
Pair    | 0.034405   | 0.034405   | 0.034405   |   0.0 | 69.15
Bond    | 0.0084925  | 0.0084925  | 0.0084925  |   0.0 | 17.07
Neigh   | 0.0042914  | 0.0042914  | 0.0042914  |   0.0 |  8.63
Comm    | 0.0012036  | 0.0012036  | 0.0012036  |   0.0 |  2.42
Output  | 0          | 0          | 0          |   0.0 |  0.00
Modify  | 0          | 0          | 0          |   0.0 |  0.00
Other   |            | 0.001361   |            |       |  2.74

Nlocal:            362 ave         362 max         362 min
Histogram: 1 0 0 0 0 0 0 0 0 0
Nghost:           2332 ave        2332 max        2332 min
Histogram: 1 0 0 0 0 0 0 0 0 0
Neighs:          22998 ave       22998 max       22998 min
Histogram: 1 0 0 0 0 0 0 0 0 0

Total # of neighbors = 22998
Ave neighs/atom = 63.530387
Ave special neighs/atom = 6.1878453
Neighbor list builds = 2
Dangerous builds = 0

# Generating the full routine as described in the paper for UFF
# fix nvt_relax   all nvt temp 300 300 ${thermal_damp}
# run 100000      # 100 picoseconds
# unfix           nvt_relax
#
# fix npt_relax   all npt temp 300 300 ${thermal_damp} iso 0 0 ${pressure_damp}
# run 100000      # 100 picoseconds
# unfix           npt_relax
#
# fix nvt_heat    all nvt temp 300 1000 ${thermal_damp}
# run 100000      # 100 picoseconds
# unfix           nvt_heat
#
# fix npt_heat    all npt temp 1000 1000 ${thermal_damp} iso 0 0 ${pressure_damp}
# run 100000      # 100 picoseconds
# unfix           npt_heat
#
# fix cooling_npt all npt temp 1000 300 ${thermal_damp} iso 0 0 ${pressure_damp}
# run 700000      # 700 picoseconds
# unfix           cooling_npt
#
# fix npt_final   all npt temp 300 300 ${thermal_damp} iso 0 0 100
# run 100000      # 100 picoseconds
# unfix           npt_final

# density computation
# variable rho equal density
# fix integrate  all npt temp ${temp} ${temp} ${thermal_damp} iso 0 0 ${pressure_damp}
# fix rho50k all ave/time 10 5000 50000 v_rho mode scalar ave one
# run 50000
# unfix integrate
# unfix rho50k

# Compute initial state
fix 3 all box/relax  aniso 0.0
minimize ${etol} ${ftol} ${maxiter} ${maxeval}
minimize 0 ${ftol} ${maxiter} ${maxeval}
minimize 0 1e-10 ${maxiter} ${maxeval}
minimize 0 1e-10 100000 ${maxeval}
minimize 0 1e-10 100000 100000
Generated 6 of 6 mixed pair_coeff terms from arithmetic mixing rule
WARNING: Energy due to 3 extra global DOFs will be included in minimizer energies
 (src/min.cpp:222)
WARNING: Inconsistent image flags
For more information see https://docs.lammps.org/err0027 (src/domain.cpp:1052)
Per MPI rank memory allocation (min/avg/max) = 18.59 | 18.59 | 18.59 Mbytes
   Step          Temp          PotEng         KinEng         TotEng         Press          Volume        Density    
        85   0              123.34189      0              123.34189      9943.1396      3866.337       1.7039137    
        97   0              123.2415       0              123.2415       9658.1831      3867.1655      1.7035487    
Loop time of 0.0347833 on 1 procs for 12 steps with 362 atoms

100.0% CPU use with 1 MPI tasks x 1 OpenMP threads

Minimization stats:
  Stopping criterion = linesearch alpha is zero
  Energy initial, next-to-last, final = 
      123.341888102568   123.241497156376   123.241497156376
  Force two-norm initial, final = 1027.6769 999.88383
  Force max component initial, final = 809.09072 789.25886
  Final line search alpha, max atom move = 7.5519766e-15 5.9604645e-12
  Iterations, force evaluations = 12 160

MPI task timing breakdown:
Section |  min time  |  avg time  |  max time  |%varavg| %total
---------------------------------------------------------------
Pair    | 0.023544   | 0.023544   | 0.023544   |   0.0 | 67.69
Bond    | 0.0068807  | 0.0068807  | 0.0068807  |   0.0 | 19.78
Neigh   | 0          | 0          | 0          |   0.0 |  0.00
Comm    | 0.0006859  | 0.0006859  | 0.0006859  |   0.0 |  1.97
Output  | 0          | 0          | 0          |   0.0 |  0.00
Modify  | 0          | 0          | 0          |   0.0 |  0.00
Other   |            | 0.003673   |            |       | 10.56

Nlocal:            362 ave         362 max         362 min
Histogram: 1 0 0 0 0 0 0 0 0 0
Nghost:           2312 ave        2312 max        2312 min
Histogram: 1 0 0 0 0 0 0 0 0 0
Neighs:          22972 ave       22972 max       22972 min
Histogram: 1 0 0 0 0 0 0 0 0 0

Total # of neighbors = 22972
Ave neighs/atom = 63.458564
Ave special neighs/atom = 6.1878453
Neighbor list builds = 0
Dangerous builds = 0

variable tmp equal pxx
variable pxx0 equal ${tmp}
variable pxx0 equal 9249.78875340498
variable tmp equal pyy
variable pyy0 equal ${tmp}
variable pyy0 equal 13995.7309460572
variable tmp equal pzz
variable pzz0 equal ${tmp}
variable pzz0 equal 5729.02959862369
variable tmp equal pyz
variable pyz0 equal ${tmp}
variable pyz0 equal -1333.30738867645
variable tmp equal pxz
variable pxz0 equal ${tmp}
variable pxz0 equal -3515.96421696074
variable tmp equal pxy
variable pxy0 equal ${tmp}
variable pxy0 equal -9986.40203374739

variable tmp equal lx
variable lx0 equal ${tmp}
variable lx0 equal 17.1428805216918
variable tmp equal ly
variable ly0 equal ${tmp}
variable ly0 equal 12.8264681346712
variable tmp equal lz
variable lz0 equal ${tmp}
variable lz0 equal 17.5874095380314

# These formulas define the derivatives w.r.t. strain components
# Constants uses $, variables use v_
variable d1 equal -(v_pxx1-${pxx0})/(v_delta/v_len0)*${cfac}
variable d1 equal -(v_pxx1-9249.78875340498)/(v_delta/v_len0)*${cfac}
variable d1 equal -(v_pxx1-9249.78875340498)/(v_delta/v_len0)*0.0001
variable d2 equal -(v_pyy1-${pyy0})/(v_delta/v_len0)*${cfac}
variable d2 equal -(v_pyy1-13995.7309460572)/(v_delta/v_len0)*${cfac}
variable d2 equal -(v_pyy1-13995.7309460572)/(v_delta/v_len0)*0.0001
variable d3 equal -(v_pzz1-${pzz0})/(v_delta/v_len0)*${cfac}
variable d3 equal -(v_pzz1-5729.02959862369)/(v_delta/v_len0)*${cfac}
variable d3 equal -(v_pzz1-5729.02959862369)/(v_delta/v_len0)*0.0001
variable d4 equal -(v_pyz1-${pyz0})/(v_delta/v_len0)*${cfac}
variable d4 equal -(v_pyz1--1333.30738867645)/(v_delta/v_len0)*${cfac}
variable d4 equal -(v_pyz1--1333.30738867645)/(v_delta/v_len0)*0.0001
variable d5 equal -(v_pxz1-${pxz0})/(v_delta/v_len0)*${cfac}
variable d5 equal -(v_pxz1--3515.96421696074)/(v_delta/v_len0)*${cfac}
variable d5 equal -(v_pxz1--3515.96421696074)/(v_delta/v_len0)*0.0001
variable d6 equal -(v_pxy1-${pxy0})/(v_delta/v_len0)*${cfac}
variable d6 equal -(v_pxy1--9986.40203374739)/(v_delta/v_len0)*${cfac}
variable d6 equal -(v_pxy1--9986.40203374739)/(v_delta/v_len0)*0.0001

# displace_atoms all random ${atomjiggle} ${atomjiggle} ${atomjiggle} 87287 units box

# Write restart
unfix 3
write_restart restart_333U-50C-1-vasp.equil
System init for write_restart ...
Generated 6 of 6 mixed pair_coeff terms from arithmetic mixing rule

# uxx Perturbation

variable dir equal 1
include ./input/displace_333U-50C-1-vasp.mod
if "${dir} == 1" then    "variable len0 equal ${lx0}"
variable len0 equal ${lx0}
variable len0 equal 17.1428805216918
if "${dir} == 2" then    "variable len0 equal ${ly0}"
if "${dir} == 3" then    "variable len0 equal ${lz0}"
if "${dir} == 4" then    "variable len0 equal ${lz0}"
if "${dir} == 5" then    "variable len0 equal ${lz0}"
if "${dir} == 6" then    "variable len0 equal ${ly0}"

# Reset box and simulation parameters

clear
OMP_NUM_THREADS environment is not set. Defaulting to 1 thread.
  using 1 OpenMP thread(s) per MPI task
box tilt large

The 'box' command has been removed and will be ignored

read_restart restart_333U-50C-1-vasp.equil
Reading restart file ...
  restart file = 10 Sep 2025, LAMMPS = 10 Sep 2025
  restoring atom style full from restart
  triclinic box = (-0.00058626085 -0.00066106734 -0.00037626902) to (17.142294 12.825807 17.587033) with tilt (-8.3828221 0.030517306 0.30273095)
WARNING: Triclinic box skew is large. LAMMPS will run inefficiently. (src/domain.cpp:221)
  1 by 1 by 1 MPI processor grid
  restoring pair style lj/cut from restart
  restoring bond style harmonic from restart
  restoring angle style hybrid from restart
  restoring dihedral style harmonic from restart
  362 atoms
  387 bonds
  733 angles
  915 dihedrals
Finding 1-2 1-3 1-4 neighbors ...
  special bond factors lj:    0        0        1       
  special bond factors coul:  0        0        1       
     4 = max # of 1-2 neighbors
     8 = max # of 1-3 neighbors
    12 = max # of special neighbors
  special bonds CPU = 0.000 seconds
  read_restart CPU = 0.001 seconds
include ./input/angles_333U-50C-1-vasp.mod
angle_style hybrid fourier cosine/periodic
angle_coeff 1 fourier 114.246973        0.343737        0.374972        0.281246
angle_coeff 2 fourier 157.882480        0.343737        0.374972        0.281246
angle_coeff 3 fourier 221.735285        0.343737        0.374972        0.281246
angle_coeff 4 fourier 32.417871        0.343737        0.374972        0.281246
angle_coeff 5 fourier 83.380072        0.343737        0.374972        0.281246
angle_coeff 6 fourier 58.020602        0.343737        0.374972        0.281246
angle_coeff 7 fourier 90.420412        0.343737        0.374972        0.281246
angle_coeff 8 fourier 75.498766        0.343737        0.374972        0.281246
angle_coeff 9 cosine/periodic 88.853997              -1               3

# Negative deformation

variable delta equal -${up}*${len0}
variable delta equal -0.02*${len0}
variable delta equal -0.02*17.1428805216918
variable deltaxy equal -${up}*xy
variable deltaxy equal -0.02*xy
variable deltaxz equal -${up}*xz
variable deltaxz equal -0.02*xz
variable deltayz equal -${up}*yz
variable deltayz equal -0.02*yz
if "${dir} == 1" then    "change_box all x delta 0 ${delta} xy delta ${deltaxy} xz delta ${deltaxz} remap units box"
change_box all x delta 0 ${delta} xy delta ${deltaxy} xz delta ${deltaxz} remap units box
change_box all x delta 0 -0.342857610433836 xy delta ${deltaxy} xz delta ${deltaxz} remap units box
change_box all x delta 0 -0.342857610433836 xy delta 0.16765644179513 xz delta ${deltaxz} remap units box
change_box all x delta 0 -0.342857610433836 xy delta 0.16765644179513 xz delta -0.000610346115765567 remap units box
Changing box ...
WARNING: Triclinic box skew is large. LAMMPS will run inefficiently. (src/domain.cpp:221)
  triclinic box = (-0.00058626085 -0.00066106734 -0.00037626902) to (16.799437 12.825807 17.587033) with tilt (-8.3828221 0.030517306 0.30273095)
WARNING: Triclinic box skew is large. LAMMPS will run inefficiently. (src/domain.cpp:221)
  triclinic box = (-0.00058626085 -0.00066106734 -0.00037626902) to (16.799437 12.825807 17.587033) with tilt (-8.2151656 0.030517306 0.30273095)
WARNING: Triclinic box skew is large. LAMMPS will run inefficiently. (src/domain.cpp:221)
  triclinic box = (-0.00058626085 -0.00066106734 -0.00037626902) to (16.799437 12.825807 17.587033) with tilt (-8.2151656 0.02990696 0.30273095)
if "${dir} == 2" then    "change_box all y delta 0 ${delta} yz delta ${deltayz} remap units box"
if "${dir} == 3" then    "change_box all z delta 0 ${delta} remap units box"
if "${dir} == 4" then    "change_box all yz delta ${delta} remap units box"
if "${dir} == 5" then    "change_box all xz delta ${delta} remap units box"
if "${dir} == 6" then    "change_box all xy delta ${delta} remap units box"

# Relax atoms positions

minimize ${etol} ${ftol} ${maxiter} ${maxeval}
minimize 0 ${ftol} ${maxiter} ${maxeval}
minimize 0 1e-10 ${maxiter} ${maxeval}
minimize 0 1e-10 100000 ${maxeval}
minimize 0 1e-10 100000 100000
Generated 6 of 6 mixed pair_coeff terms from arithmetic mixing rule
Neighbor list info ...
  update: every = 1 steps, delay = 0 steps, check = yes
  max neighbors/atom: 2000, page size: 100000
  master list distance cutoff = 7
  ghost atom cutoff = 7
  binsize = 3.5, bins = 8 4 6
  1 neighbor lists, perpetual/occasional/extra = 1 0 0
  (1) pair lj/cut, perpetual
      attributes: half, newton on
      pair build: half/bin/newton/tri
      stencil: half/bin/3d/tri
      bin: standard
WARNING: Inconsistent image flags
For more information see https://docs.lammps.org/err0027 (src/domain.cpp:1052)
Per MPI rank memory allocation (min/avg/max) = 17.52 | 17.52 | 17.52 Mbytes
   Step          Temp          E_pair         E_mol          TotEng         Press     
        97   0             -405.91468      571.16296      165.24828      36731.953    
       117   0             -409.31028      547.42931      138.11903      17754.956    
Loop time of 0.0190744 on 1 procs for 20 steps with 362 atoms

100.0% CPU use with 1 MPI tasks x 1 OpenMP threads

Minimization stats:
  Stopping criterion = linesearch alpha is zero
  Energy initial, next-to-last, final = 
      165.248280608756   138.119026440196   138.119026440196
  Force two-norm initial, final = 174.39681 20.777512
  Force max component initial, final = 20.289482 3.2377095
  Final line search alpha, max atom move = 1.8041873e-11 5.8414346e-11
  Iterations, force evaluations = 20 97

MPI task timing breakdown:
Section |  min time  |  avg time  |  max time  |%varavg| %total
---------------------------------------------------------------
Pair    | 0.014693   | 0.014693   | 0.014693   |   0.0 | 77.03
Bond    | 0.0036048  | 0.0036048  | 0.0036048  |   0.0 | 18.90
Neigh   | 0          | 0          | 0          |   0.0 |  0.00
Comm    | 0.0004341  | 0.0004341  | 0.0004341  |   0.0 |  2.28
Output  | 0          | 0          | 0          |   0.0 |  0.00
Modify  | 0          | 0          | 0          |   0.0 |  0.00
Other   |            | 0.0003428  |            |       |  1.80

Nlocal:            362 ave         362 max         362 min
Histogram: 1 0 0 0 0 0 0 0 0 0
Nghost:           2344 ave        2344 max        2344 min
Histogram: 1 0 0 0 0 0 0 0 0 0
Neighs:          23442 ave       23442 max       23442 min
Histogram: 1 0 0 0 0 0 0 0 0 0

Total # of neighbors = 23442
Ave neighs/atom = 64.756906
Ave special neighs/atom = 6.1878453
Neighbor list builds = 0
Dangerous builds = 0

# Obtain new stress tensor

variable tmp equal pxx
variable pxx1 equal ${tmp}
variable pxx1 equal 21415.029166293
variable tmp equal pyy
variable pyy1 equal ${tmp}
variable pyy1 equal 19697.9828378725
variable tmp equal pzz
variable pzz1 equal ${tmp}
variable pzz1 equal 12151.856137702
variable tmp equal pxy
variable pxy1 equal ${tmp}
variable pxy1 equal -10299.0889843838
variable tmp equal pxz
variable pxz1 equal ${tmp}
variable pxz1 equal -3322.52099165688
variable tmp equal pyz
variable pyz1 equal ${tmp}
variable pyz1 equal -1663.2280506828

# Compute elastic constant from pressure tensor

variable C1neg equal ${d1}
variable C1neg equal 60.8262020644401
variable C2neg equal ${d2}
variable C2neg equal 28.5112594590765
variable C3neg equal ${d3}
variable C3neg equal 32.1141326953915
variable C4neg equal ${d4}
variable C4neg equal -1.64960331003175
variable C5neg equal ${d5}
variable C5neg equal 0.967216126519299
variable C6neg equal ${d6}
variable C6neg equal -1.56343475318205

# Reset box and simulation parameters

clear
OMP_NUM_THREADS environment is not set. Defaulting to 1 thread.
  using 1 OpenMP thread(s) per MPI task
box tilt large

The 'box' command has been removed and will be ignored

read_restart restart_333U-50C-1-vasp.equil
Reading restart file ...
  restart file = 10 Sep 2025, LAMMPS = 10 Sep 2025
  restoring atom style full from restart
  triclinic box = (-0.00058626085 -0.00066106734 -0.00037626902) to (17.142294 12.825807 17.587033) with tilt (-8.3828221 0.030517306 0.30273095)
WARNING: Triclinic box skew is large. LAMMPS will run inefficiently. (src/domain.cpp:221)
  1 by 1 by 1 MPI processor grid
  restoring pair style lj/cut from restart
  restoring bond style harmonic from restart
  restoring angle style hybrid from restart
  restoring dihedral style harmonic from restart
  362 atoms
  387 bonds
  733 angles
  915 dihedrals
Finding 1-2 1-3 1-4 neighbors ...
  special bond factors lj:    0        0        1       
  special bond factors coul:  0        0        1       
     4 = max # of 1-2 neighbors
     8 = max # of 1-3 neighbors
    12 = max # of special neighbors
  special bonds CPU = 0.000 seconds
  read_restart CPU = 0.001 seconds
include ./input/angles_333U-50C-1-vasp.mod
angle_style hybrid fourier cosine/periodic
angle_coeff 1 fourier 114.246973        0.343737        0.374972        0.281246
angle_coeff 2 fourier 157.882480        0.343737        0.374972        0.281246
angle_coeff 3 fourier 221.735285        0.343737        0.374972        0.281246
angle_coeff 4 fourier 32.417871        0.343737        0.374972        0.281246
angle_coeff 5 fourier 83.380072        0.343737        0.374972        0.281246
angle_coeff 6 fourier 58.020602        0.343737        0.374972        0.281246
angle_coeff 7 fourier 90.420412        0.343737        0.374972        0.281246
angle_coeff 8 fourier 75.498766        0.343737        0.374972        0.281246
angle_coeff 9 cosine/periodic 88.853997              -1               3

# Positive deformation

variable delta equal ${up}*${len0}
variable delta equal 0.02*${len0}
variable delta equal 0.02*17.1428805216918
variable deltaxy equal ${up}*xy
variable deltaxy equal 0.02*xy
variable deltaxz equal ${up}*xz
variable deltaxz equal 0.02*xz
variable deltayz equal ${up}*yz
variable deltayz equal 0.02*yz
if "${dir} == 1" then    "change_box all x delta 0 ${delta} xy delta ${deltaxy} xz delta ${deltaxz} remap units box"
change_box all x delta 0 ${delta} xy delta ${deltaxy} xz delta ${deltaxz} remap units box
change_box all x delta 0 0.342857610433836 xy delta ${deltaxy} xz delta ${deltaxz} remap units box
change_box all x delta 0 0.342857610433836 xy delta -0.16765644179513 xz delta ${deltaxz} remap units box
change_box all x delta 0 0.342857610433836 xy delta -0.16765644179513 xz delta 0.000610346115765567 remap units box
Changing box ...
WARNING: Triclinic box skew is large. LAMMPS will run inefficiently. (src/domain.cpp:221)
  triclinic box = (-0.00058626085 -0.00066106734 -0.00037626902) to (17.485152 12.825807 17.587033) with tilt (-8.3828221 0.030517306 0.30273095)
WARNING: Triclinic box skew is large. LAMMPS will run inefficiently. (src/domain.cpp:221)
  triclinic box = (-0.00058626085 -0.00066106734 -0.00037626902) to (17.485152 12.825807 17.587033) with tilt (-8.5504785 0.030517306 0.30273095)
WARNING: Triclinic box skew is large. LAMMPS will run inefficiently. (src/domain.cpp:221)
  triclinic box = (-0.00058626085 -0.00066106734 -0.00037626902) to (17.485152 12.825807 17.587033) with tilt (-8.5504785 0.031127652 0.30273095)
if "${dir} == 2" then    "change_box all y delta 0 ${delta} yz delta ${deltayz} remap units box"
if "${dir} == 3" then    "change_box all z delta 0 ${delta} remap units box"
if "${dir} == 4" then    "change_box all yz delta ${delta} remap units box"
if "${dir} == 5" then    "change_box all xz delta ${delta} remap units box"
if "${dir} == 6" then    "change_box all xy delta ${delta} remap units box"

# Relax atoms positions

minimize ${etol} ${ftol} ${maxiter} ${maxeval}
minimize 0 ${ftol} ${maxiter} ${maxeval}
minimize 0 1e-10 ${maxiter} ${maxeval}
minimize 0 1e-10 100000 ${maxeval}
minimize 0 1e-10 100000 100000
Generated 6 of 6 mixed pair_coeff terms from arithmetic mixing rule
Neighbor list info ...
  update: every = 1 steps, delay = 0 steps, check = yes
  max neighbors/atom: 2000, page size: 100000
  master list distance cutoff = 7
  ghost atom cutoff = 7
  binsize = 3.5, bins = 8 4 6
  1 neighbor lists, perpetual/occasional/extra = 1 0 0
  (1) pair lj/cut, perpetual
      attributes: half, newton on
      pair build: half/bin/newton/tri
      stencil: half/bin/3d/tri
      bin: standard
WARNING: Inconsistent image flags
For more information see https://docs.lammps.org/err0027 (src/domain.cpp:1052)
Per MPI rank memory allocation (min/avg/max) = 17.52 | 17.52 | 17.52 Mbytes
   Step          Temp          E_pair         E_mol          TotEng         Press     
        97   0             -449.19566      593.86448      144.66882     -16406.574    
       123   0             -440.81797      556.79065      115.97268      3518.1699    
Loop time of 0.019834 on 1 procs for 26 steps with 362 atoms

100.0% CPU use with 1 MPI tasks x 1 OpenMP threads

Minimization stats:
  Stopping criterion = linesearch alpha is zero
  Energy initial, next-to-last, final = 
      144.668819540795   115.972682561443   115.972682561443
  Force two-norm initial, final = 177.52609 14.954653
  Force max component initial, final = 20.908987 2.7069282
  Final line search alpha, max atom move = 4.5125173e-11 1.2215061e-10
  Iterations, force evaluations = 26 107

MPI task timing breakdown:
Section |  min time  |  avg time  |  max time  |%varavg| %total
---------------------------------------------------------------
Pair    | 0.015116   | 0.015116   | 0.015116   |   0.0 | 76.21
Bond    | 0.0038485  | 0.0038485  | 0.0038485  |   0.0 | 19.40
Neigh   | 0          | 0          | 0          |   0.0 |  0.00
Comm    | 0.00050334 | 0.00050334 | 0.00050334 |   0.0 |  2.54
Output  | 0          | 0          | 0          |   0.0 |  0.00
Modify  | 0          | 0          | 0          |   0.0 |  0.00
Other   |            | 0.0003664  |            |       |  1.85

Nlocal:            362 ave         362 max         362 min
Histogram: 1 0 0 0 0 0 0 0 0 0
Nghost:           2295 ave        2295 max        2295 min
Histogram: 1 0 0 0 0 0 0 0 0 0
Neighs:          22486 ave       22486 max       22486 min
Histogram: 1 0 0 0 0 0 0 0 0 0

Total # of neighbors = 22486
Ave neighs/atom = 62.116022
Ave special neighs/atom = 6.1878453
Neighbor list builds = 0
Dangerous builds = 0

# Obtain new stress tensor

variable tmp equal pe
variable e1 equal ${tmp}
variable e1 equal 115.972682561443
variable tmp equal press
variable p1 equal ${tmp}
variable p1 equal 3518.16989370926
variable tmp equal pxx
variable pxx1 equal ${tmp}
variable pxx1 equal -1600.44480045757
variable tmp equal pyy
variable pyy1 equal ${tmp}
variable pyy1 equal 10390.1844301554
variable tmp equal pzz
variable pzz1 equal ${tmp}
variable pzz1 equal 1764.77005143
variable tmp equal pxy
variable pxy1 equal ${tmp}
variable pxy1 equal -8210.22129459567
variable tmp equal pxz
variable pxz1 equal ${tmp}
variable pxz1 equal -3311.5387461543
variable tmp equal pyz
variable pyz1 equal ${tmp}
variable pyz1 equal -1590.64569147862

# Compute elastic constant from pressure tensor

variable C1pos equal ${d1}
variable C1pos equal 54.2511677693128
variable C2pos equal ${d2}
variable C2pos equal 18.027732579509
variable C3pos equal ${d3}
variable C3pos equal 19.8212977359685
variable C4pos equal ${d4}
variable C4pos equal 1.28669151401085
variable C5pos equal ${d5}
variable C5pos equal -1.0221273540322
variable C6pos equal ${d6}
variable C6pos equal -8.8809036957586

# Combine positive and negative

variable C1${dir} equal 0.5*(${C1neg}+${C1pos})
variable C11 equal 0.5*(${C1neg}+${C1pos})
variable C11 equal 0.5*(60.8262020644401+${C1pos})
variable C11 equal 0.5*(60.8262020644401+54.2511677693128)
variable C2${dir} equal 0.5*(${C2neg}+${C2pos})
variable C21 equal 0.5*(${C2neg}+${C2pos})
variable C21 equal 0.5*(28.5112594590765+${C2pos})
variable C21 equal 0.5*(28.5112594590765+18.027732579509)
variable C3${dir} equal 0.5*(${C3neg}+${C3pos})
variable C31 equal 0.5*(${C3neg}+${C3pos})
variable C31 equal 0.5*(32.1141326953915+${C3pos})
variable C31 equal 0.5*(32.1141326953915+19.8212977359685)
variable C4${dir} equal 0.5*(${C4neg}+${C4pos})
variable C41 equal 0.5*(${C4neg}+${C4pos})
variable C41 equal 0.5*(-1.64960331003175+${C4pos})
variable C41 equal 0.5*(-1.64960331003175+1.28669151401085)
variable C5${dir} equal 0.5*(${C5neg}+${C5pos})
variable C51 equal 0.5*(${C5neg}+${C5pos})
variable C51 equal 0.5*(0.967216126519299+${C5pos})
variable C51 equal 0.5*(0.967216126519299+-1.0221273540322)
variable C6${dir} equal 0.5*(${C6neg}+${C6pos})
variable C61 equal 0.5*(${C6neg}+${C6pos})
variable C61 equal 0.5*(-1.56343475318205+${C6pos})
variable C61 equal 0.5*(-1.56343475318205+-8.8809036957586)

# Delete dir to make sure it is not reused

variable dir delete

# uyy Perturbation

variable dir equal 2
include ./input/displace_333U-50C-1-vasp.mod
if "${dir} == 1" then    "variable len0 equal ${lx0}"
if "${dir} == 2" then    "variable len0 equal ${ly0}"
variable len0 equal ${ly0}
variable len0 equal 12.8264681346712
if "${dir} == 3" then    "variable len0 equal ${lz0}"
if "${dir} == 4" then    "variable len0 equal ${lz0}"
if "${dir} == 5" then    "variable len0 equal ${lz0}"
if "${dir} == 6" then    "variable len0 equal ${ly0}"

# Reset box and simulation parameters

clear
OMP_NUM_THREADS environment is not set. Defaulting to 1 thread.
  using 1 OpenMP thread(s) per MPI task
box tilt large

The 'box' command has been removed and will be ignored

read_restart restart_333U-50C-1-vasp.equil
Reading restart file ...
  restart file = 10 Sep 2025, LAMMPS = 10 Sep 2025
  restoring atom style full from restart
  triclinic box = (-0.00058626085 -0.00066106734 -0.00037626902) to (17.142294 12.825807 17.587033) with tilt (-8.3828221 0.030517306 0.30273095)
WARNING: Triclinic box skew is large. LAMMPS will run inefficiently. (src/domain.cpp:221)
  1 by 1 by 1 MPI processor grid
  restoring pair style lj/cut from restart
  restoring bond style harmonic from restart
  restoring angle style hybrid from restart
  restoring dihedral style harmonic from restart
  362 atoms
  387 bonds
  733 angles
  915 dihedrals
Finding 1-2 1-3 1-4 neighbors ...
  special bond factors lj:    0        0        1       
  special bond factors coul:  0        0        1       
     4 = max # of 1-2 neighbors
     8 = max # of 1-3 neighbors
    12 = max # of special neighbors
  special bonds CPU = 0.000 seconds
  read_restart CPU = 0.001 seconds
include ./input/angles_333U-50C-1-vasp.mod
angle_style hybrid fourier cosine/periodic
angle_coeff 1 fourier 114.246973        0.343737        0.374972        0.281246
angle_coeff 2 fourier 157.882480        0.343737        0.374972        0.281246
angle_coeff 3 fourier 221.735285        0.343737        0.374972        0.281246
angle_coeff 4 fourier 32.417871        0.343737        0.374972        0.281246
angle_coeff 5 fourier 83.380072        0.343737        0.374972        0.281246
angle_coeff 6 fourier 58.020602        0.343737        0.374972        0.281246
angle_coeff 7 fourier 90.420412        0.343737        0.374972        0.281246
angle_coeff 8 fourier 75.498766        0.343737        0.374972        0.281246
angle_coeff 9 cosine/periodic 88.853997              -1               3

# Negative deformation

variable delta equal -${up}*${len0}
variable delta equal -0.02*${len0}
variable delta equal -0.02*12.8264681346712
variable deltaxy equal -${up}*xy
variable deltaxy equal -0.02*xy
variable deltaxz equal -${up}*xz
variable deltaxz equal -0.02*xz
variable deltayz equal -${up}*yz
variable deltayz equal -0.02*yz
if "${dir} == 1" then    "change_box all x delta 0 ${delta} xy delta ${deltaxy} xz delta ${deltaxz} remap units box"
if "${dir} == 2" then    "change_box all y delta 0 ${delta} yz delta ${deltayz} remap units box"
change_box all y delta 0 ${delta} yz delta ${deltayz} remap units box
change_box all y delta 0 -0.256529362693424 yz delta ${deltayz} remap units box
change_box all y delta 0 -0.256529362693424 yz delta -0.00605461906777824 remap units box
Changing box ...
WARNING: Triclinic box skew is large. LAMMPS will run inefficiently. (src/domain.cpp:221)
  triclinic box = (-0.00058626085 -0.00066106734 -0.00037626902) to (17.142294 12.569278 17.587033) with tilt (-8.3828221 0.030517306 0.30273095)
WARNING: Triclinic box skew is large. LAMMPS will run inefficiently. (src/domain.cpp:221)
  triclinic box = (-0.00058626085 -0.00066106734 -0.00037626902) to (17.142294 12.569278 17.587033) with tilt (-8.3828221 0.030517306 0.29667633)
if "${dir} == 3" then    "change_box all z delta 0 ${delta} remap units box"
if "${dir} == 4" then    "change_box all yz delta ${delta} remap units box"
if "${dir} == 5" then    "change_box all xz delta ${delta} remap units box"
if "${dir} == 6" then    "change_box all xy delta ${delta} remap units box"

# Relax atoms positions

minimize ${etol} ${ftol} ${maxiter} ${maxeval}
minimize 0 ${ftol} ${maxiter} ${maxeval}
minimize 0 1e-10 ${maxiter} ${maxeval}
minimize 0 1e-10 100000 ${maxeval}
minimize 0 1e-10 100000 100000
Generated 6 of 6 mixed pair_coeff terms from arithmetic mixing rule
Neighbor list info ...
  update: every = 1 steps, delay = 0 steps, check = yes
  max neighbors/atom: 2000, page size: 100000
  master list distance cutoff = 7
  ghost atom cutoff = 7
  binsize = 3.5, bins = 8 4 6
  1 neighbor lists, perpetual/occasional/extra = 1 0 0
  (1) pair lj/cut, perpetual
      attributes: half, newton on
      pair build: half/bin/newton/tri
      stencil: half/bin/3d/tri
      bin: standard
WARNING: Inconsistent image flags
For more information see https://docs.lammps.org/err0027 (src/domain.cpp:1052)
Per MPI rank memory allocation (min/avg/max) = 17.52 | 17.52 | 17.52 Mbytes
   Step          Temp          E_pair         E_mol          TotEng         Press     
        97   0             -404.12045      574.75302      170.63258      36834.448    
       136   0             -411.41439      551.81266      140.39827      17351.574    
Loop time of 0.025741 on 1 procs for 39 steps with 362 atoms

100.0% CPU use with 1 MPI tasks x 1 OpenMP threads

Minimization stats:
  Stopping criterion = linesearch alpha is zero
  Energy initial, next-to-last, final = 
      170.632577498466   140.398270529574   140.398270529574
  Force two-norm initial, final = 174.61564 16.921562
  Force max component initial, final = 20.110627 2.1050587
  Final line search alpha, max atom move = 2.6946634e-11 5.6724248e-11
  Iterations, force evaluations = 39 133

MPI task timing breakdown:
Section |  min time  |  avg time  |  max time  |%varavg| %total
---------------------------------------------------------------
Pair    | 0.019777   | 0.019777   | 0.019777   |   0.0 | 76.83
Bond    | 0.0048768  | 0.0048768  | 0.0048768  |   0.0 | 18.95
Neigh   | 0          | 0          | 0          |   0.0 |  0.00
Comm    | 0.00061604 | 0.00061604 | 0.00061604 |   0.0 |  2.39
Output  | 0          | 0          | 0          |   0.0 |  0.00
Modify  | 0          | 0          | 0          |   0.0 |  0.00
Other   |            | 0.0004713  |            |       |  1.83

Nlocal:            362 ave         362 max         362 min
Histogram: 1 0 0 0 0 0 0 0 0 0
Nghost:           2350 ave        2350 max        2350 min
Histogram: 1 0 0 0 0 0 0 0 0 0
Neighs:          23471 ave       23471 max       23471 min
Histogram: 1 0 0 0 0 0 0 0 0 0

Total # of neighbors = 23471
Ave neighs/atom = 64.837017
Ave special neighs/atom = 6.1878453
Neighbor list builds = 0
Dangerous builds = 0

# Obtain new stress tensor

variable tmp equal pxx
variable pxx1 equal ${tmp}
variable pxx1 equal 12899.2380248946
variable tmp equal pyy
variable pyy1 equal ${tmp}
variable pyy1 equal 25542.8471564758
variable tmp equal pzz
variable pzz1 equal ${tmp}
variable pzz1 equal 13612.6376172229
variable tmp equal pxy
variable pxy1 equal ${tmp}
variable pxy1 equal -9304.12373582336
variable tmp equal pxz
variable pxz1 equal ${tmp}
variable pxz1 equal -3006.11958799525
variable tmp equal pyz
variable pyz1 equal ${tmp}
variable pyz1 equal -1668.25721691263

# Compute elastic constant from pressure tensor

variable C1neg equal ${d1}
variable C1neg equal 18.2472463574481
variable C2neg equal ${d2}
variable C2neg equal 57.735581052093
variable C3neg equal ${d3}
variable C3neg equal 39.4180400929961
variable C4neg equal ${d4}
variable C4neg equal -1.6747491411809
variable C5neg equal ${d5}
variable C5neg equal 2.54922314482745
variable C6neg equal ${d6}
variable C6neg equal 3.41139148962015

# Reset box and simulation parameters

clear
OMP_NUM_THREADS environment is not set. Defaulting to 1 thread.
  using 1 OpenMP thread(s) per MPI task
box tilt large

The 'box' command has been removed and will be ignored

read_restart restart_333U-50C-1-vasp.equil
Reading restart file ...
  restart file = 10 Sep 2025, LAMMPS = 10 Sep 2025
  restoring atom style full from restart
  triclinic box = (-0.00058626085 -0.00066106734 -0.00037626902) to (17.142294 12.825807 17.587033) with tilt (-8.3828221 0.030517306 0.30273095)
WARNING: Triclinic box skew is large. LAMMPS will run inefficiently. (src/domain.cpp:221)
  1 by 1 by 1 MPI processor grid
  restoring pair style lj/cut from restart
  restoring bond style harmonic from restart
  restoring angle style hybrid from restart
  restoring dihedral style harmonic from restart
  362 atoms
  387 bonds
  733 angles
  915 dihedrals
Finding 1-2 1-3 1-4 neighbors ...
  special bond factors lj:    0        0        1       
  special bond factors coul:  0        0        1       
     4 = max # of 1-2 neighbors
     8 = max # of 1-3 neighbors
    12 = max # of special neighbors
  special bonds CPU = 0.000 seconds
  read_restart CPU = 0.001 seconds
include ./input/angles_333U-50C-1-vasp.mod
angle_style hybrid fourier cosine/periodic
angle_coeff 1 fourier 114.246973        0.343737        0.374972        0.281246
angle_coeff 2 fourier 157.882480        0.343737        0.374972        0.281246
angle_coeff 3 fourier 221.735285        0.343737        0.374972        0.281246
angle_coeff 4 fourier 32.417871        0.343737        0.374972        0.281246
angle_coeff 5 fourier 83.380072        0.343737        0.374972        0.281246
angle_coeff 6 fourier 58.020602        0.343737        0.374972        0.281246
angle_coeff 7 fourier 90.420412        0.343737        0.374972        0.281246
angle_coeff 8 fourier 75.498766        0.343737        0.374972        0.281246
angle_coeff 9 cosine/periodic 88.853997              -1               3

# Positive deformation

variable delta equal ${up}*${len0}
variable delta equal 0.02*${len0}
variable delta equal 0.02*12.8264681346712
variable deltaxy equal ${up}*xy
variable deltaxy equal 0.02*xy
variable deltaxz equal ${up}*xz
variable deltaxz equal 0.02*xz
variable deltayz equal ${up}*yz
variable deltayz equal 0.02*yz
if "${dir} == 1" then    "change_box all x delta 0 ${delta} xy delta ${deltaxy} xz delta ${deltaxz} remap units box"
if "${dir} == 2" then    "change_box all y delta 0 ${delta} yz delta ${deltayz} remap units box"
change_box all y delta 0 ${delta} yz delta ${deltayz} remap units box
change_box all y delta 0 0.256529362693424 yz delta ${deltayz} remap units box
change_box all y delta 0 0.256529362693424 yz delta 0.00605461906777824 remap units box
Changing box ...
WARNING: Triclinic box skew is large. LAMMPS will run inefficiently. (src/domain.cpp:221)
  triclinic box = (-0.00058626085 -0.00066106734 -0.00037626902) to (17.142294 13.082336 17.587033) with tilt (-8.3828221 0.030517306 0.30273095)
WARNING: Triclinic box skew is large. LAMMPS will run inefficiently. (src/domain.cpp:221)
  triclinic box = (-0.00058626085 -0.00066106734 -0.00037626902) to (17.142294 13.082336 17.587033) with tilt (-8.3828221 0.030517306 0.30878557)
if "${dir} == 3" then    "change_box all z delta 0 ${delta} remap units box"
if "${dir} == 4" then    "change_box all yz delta ${delta} remap units box"
if "${dir} == 5" then    "change_box all xz delta ${delta} remap units box"
if "${dir} == 6" then    "change_box all xy delta ${delta} remap units box"

# Relax atoms positions

minimize ${etol} ${ftol} ${maxiter} ${maxeval}
minimize 0 ${ftol} ${maxiter} ${maxeval}
minimize 0 1e-10 ${maxiter} ${maxeval}
minimize 0 1e-10 100000 ${maxeval}
minimize 0 1e-10 100000 100000
Generated 6 of 6 mixed pair_coeff terms from arithmetic mixing rule
Neighbor list info ...
  update: every = 1 steps, delay = 0 steps, check = yes
  max neighbors/atom: 2000, page size: 100000
  master list distance cutoff = 7
  ghost atom cutoff = 7
  binsize = 3.5, bins = 8 4 6
  1 neighbor lists, perpetual/occasional/extra = 1 0 0
  (1) pair lj/cut, perpetual
      attributes: half, newton on
      pair build: half/bin/newton/tri
      stencil: half/bin/3d/tri
      bin: standard
WARNING: Inconsistent image flags
For more information see https://docs.lammps.org/err0027 (src/domain.cpp:1052)
Per MPI rank memory allocation (min/avg/max) = 17.52 | 17.52 | 17.52 Mbytes
   Step          Temp          E_pair         E_mol          TotEng         Press     
        97   0             -450.86654      589.08418      138.21764     -16477.648    
       115   0             -446.04838      558.28282      112.23444      2449.981     
Loop time of 0.0175918 on 1 procs for 18 steps with 362 atoms

98.7% CPU use with 1 MPI tasks x 1 OpenMP threads

Minimization stats:
  Stopping criterion = linesearch alpha is zero
  Energy initial, next-to-last, final = 
      138.217644234524   112.234442525298   112.234442525298
  Force two-norm initial, final = 175.70453 20.005018
  Force max component initial, final = 19.888555 2.5583562
  Final line search alpha, max atom move = 2.0480258e-11 5.2395793e-11
  Iterations, force evaluations = 18 92

MPI task timing breakdown:
Section |  min time  |  avg time  |  max time  |%varavg| %total
---------------------------------------------------------------
Pair    | 0.013439   | 0.013439   | 0.013439   |   0.0 | 76.40
Bond    | 0.0034279  | 0.0034279  | 0.0034279  |   0.0 | 19.49
Neigh   | 0          | 0          | 0          |   0.0 |  0.00
Comm    | 0.00041177 | 0.00041177 | 0.00041177 |   0.0 |  2.34
Output  | 0          | 0          | 0          |   0.0 |  0.00
Modify  | 0          | 0          | 0          |   0.0 |  0.00
Other   |            | 0.0003129  |            |       |  1.78

Nlocal:            362 ave         362 max         362 min
Histogram: 1 0 0 0 0 0 0 0 0 0
Nghost:           2302 ave        2302 max        2302 min
Histogram: 1 0 0 0 0 0 0 0 0 0
Neighs:          22492 ave       22492 max       22492 min
Histogram: 1 0 0 0 0 0 0 0 0 0

Total # of neighbors = 22492
Ave neighs/atom = 62.132597
Ave special neighs/atom = 6.1878453
Neighbor list builds = 0
Dangerous builds = 0

# Obtain new stress tensor

variable tmp equal pe
variable e1 equal ${tmp}
variable e1 equal 112.234442525298
variable tmp equal press
variable p1 equal ${tmp}
variable p1 equal 2449.98095894272
variable tmp equal pxx
variable pxx1 equal ${tmp}
variable pxx1 equal 4432.59674027373
variable tmp equal pyy
variable pyy1 equal ${tmp}
variable pyy1 equal 1407.63466288906
variable tmp equal pzz
variable pzz1 equal ${tmp}
variable pzz1 equal 1509.71147366539
variable tmp equal pxy
variable pxy1 equal ${tmp}
variable pxy1 equal -8422.41762851233
variable tmp equal pxz
variable pxz1 equal ${tmp}
variable pxz1 equal -3408.46896500962
variable tmp equal pyz
variable pyz1 equal ${tmp}
variable pyz1 equal -1839.86181850115

# Compute elastic constant from pressure tensor

variable C1pos equal ${d1}
variable C1pos equal 24.0859600656563
variable C2pos equal ${d2}
variable C2pos equal 62.9404814158407
variable C3pos equal ${d3}
variable C3pos equal 21.0965906247915
variable C4pos equal ${d4}
variable C4pos equal 2.5327721491235
variable C5pos equal ${d5}
variable C5pos equal -0.537476259755599
variable C6pos equal ${d6}
variable C6pos equal -7.8199220261753

# Combine positive and negative

variable C1${dir} equal 0.5*(${C1neg}+${C1pos})
variable C12 equal 0.5*(${C1neg}+${C1pos})
variable C12 equal 0.5*(18.2472463574481+${C1pos})
variable C12 equal 0.5*(18.2472463574481+24.0859600656563)
variable C2${dir} equal 0.5*(${C2neg}+${C2pos})
variable C22 equal 0.5*(${C2neg}+${C2pos})
variable C22 equal 0.5*(57.735581052093+${C2pos})
variable C22 equal 0.5*(57.735581052093+62.9404814158407)
variable C3${dir} equal 0.5*(${C3neg}+${C3pos})
variable C32 equal 0.5*(${C3neg}+${C3pos})
variable C32 equal 0.5*(39.4180400929961+${C3pos})
variable C32 equal 0.5*(39.4180400929961+21.0965906247915)
variable C4${dir} equal 0.5*(${C4neg}+${C4pos})
variable C42 equal 0.5*(${C4neg}+${C4pos})
variable C42 equal 0.5*(-1.6747491411809+${C4pos})
variable C42 equal 0.5*(-1.6747491411809+2.5327721491235)
variable C5${dir} equal 0.5*(${C5neg}+${C5pos})
variable C52 equal 0.5*(${C5neg}+${C5pos})
variable C52 equal 0.5*(2.54922314482745+${C5pos})
variable C52 equal 0.5*(2.54922314482745+-0.537476259755599)
variable C6${dir} equal 0.5*(${C6neg}+${C6pos})
variable C62 equal 0.5*(${C6neg}+${C6pos})
variable C62 equal 0.5*(3.41139148962015+${C6pos})
variable C62 equal 0.5*(3.41139148962015+-7.8199220261753)

# Delete dir to make sure it is not reused

variable dir delete

# uzz Perturbation

variable dir equal 3
include ./input/displace_333U-50C-1-vasp.mod
if "${dir} == 1" then    "variable len0 equal ${lx0}"
if "${dir} == 2" then    "variable len0 equal ${ly0}"
if "${dir} == 3" then    "variable len0 equal ${lz0}"
variable len0 equal ${lz0}
variable len0 equal 17.5874095380314
if "${dir} == 4" then    "variable len0 equal ${lz0}"
if "${dir} == 5" then    "variable len0 equal ${lz0}"
if "${dir} == 6" then    "variable len0 equal ${ly0}"

# Reset box and simulation parameters

clear
OMP_NUM_THREADS environment is not set. Defaulting to 1 thread.
  using 1 OpenMP thread(s) per MPI task
box tilt large

The 'box' command has been removed and will be ignored

read_restart restart_333U-50C-1-vasp.equil
Reading restart file ...
  restart file = 10 Sep 2025, LAMMPS = 10 Sep 2025
  restoring atom style full from restart
  triclinic box = (-0.00058626085 -0.00066106734 -0.00037626902) to (17.142294 12.825807 17.587033) with tilt (-8.3828221 0.030517306 0.30273095)
WARNING: Triclinic box skew is large. LAMMPS will run inefficiently. (src/domain.cpp:221)
  1 by 1 by 1 MPI processor grid
  restoring pair style lj/cut from restart
  restoring bond style harmonic from restart
  restoring angle style hybrid from restart
  restoring dihedral style harmonic from restart
  362 atoms
  387 bonds
  733 angles
  915 dihedrals
Finding 1-2 1-3 1-4 neighbors ...
  special bond factors lj:    0        0        1       
  special bond factors coul:  0        0        1       
     4 = max # of 1-2 neighbors
     8 = max # of 1-3 neighbors
    12 = max # of special neighbors
  special bonds CPU = 0.000 seconds
  read_restart CPU = 0.001 seconds
include ./input/angles_333U-50C-1-vasp.mod
angle_style hybrid fourier cosine/periodic
angle_coeff 1 fourier 114.246973        0.343737        0.374972        0.281246
angle_coeff 2 fourier 157.882480        0.343737        0.374972        0.281246
angle_coeff 3 fourier 221.735285        0.343737        0.374972        0.281246
angle_coeff 4 fourier 32.417871        0.343737        0.374972        0.281246
angle_coeff 5 fourier 83.380072        0.343737        0.374972        0.281246
angle_coeff 6 fourier 58.020602        0.343737        0.374972        0.281246
angle_coeff 7 fourier 90.420412        0.343737        0.374972        0.281246
angle_coeff 8 fourier 75.498766        0.343737        0.374972        0.281246
angle_coeff 9 cosine/periodic 88.853997              -1               3

# Negative deformation

variable delta equal -${up}*${len0}
variable delta equal -0.02*${len0}
variable delta equal -0.02*17.5874095380314
variable deltaxy equal -${up}*xy
variable deltaxy equal -0.02*xy
variable deltaxz equal -${up}*xz
variable deltaxz equal -0.02*xz
variable deltayz equal -${up}*yz
variable deltayz equal -0.02*yz
if "${dir} == 1" then    "change_box all x delta 0 ${delta} xy delta ${deltaxy} xz delta ${deltaxz} remap units box"
if "${dir} == 2" then    "change_box all y delta 0 ${delta} yz delta ${deltayz} remap units box"
if "${dir} == 3" then    "change_box all z delta 0 ${delta} remap units box"
change_box all z delta 0 ${delta} remap units box
change_box all z delta 0 -0.351748190760628 remap units box
Changing box ...
WARNING: Triclinic box skew is large. LAMMPS will run inefficiently. (src/domain.cpp:221)
  triclinic box = (-0.00058626085 -0.00066106734 -0.00037626902) to (17.142294 12.825807 17.235285) with tilt (-8.3828221 0.030517306 0.30273095)
if "${dir} == 4" then    "change_box all yz delta ${delta} remap units box"
if "${dir} == 5" then    "change_box all xz delta ${delta} remap units box"
if "${dir} == 6" then    "change_box all xy delta ${delta} remap units box"

# Relax atoms positions

minimize ${etol} ${ftol} ${maxiter} ${maxeval}
minimize 0 ${ftol} ${maxiter} ${maxeval}
minimize 0 1e-10 ${maxiter} ${maxeval}
minimize 0 1e-10 100000 ${maxeval}
minimize 0 1e-10 100000 100000
Generated 6 of 6 mixed pair_coeff terms from arithmetic mixing rule
Neighbor list info ...
  update: every = 1 steps, delay = 0 steps, check = yes
  max neighbors/atom: 2000, page size: 100000
  master list distance cutoff = 7
  ghost atom cutoff = 7
  binsize = 3.5, bins = 8 4 5
  1 neighbor lists, perpetual/occasional/extra = 1 0 0
  (1) pair lj/cut, perpetual
      attributes: half, newton on
      pair build: half/bin/newton/tri
      stencil: half/bin/3d/tri
      bin: standard
WARNING: Inconsistent image flags
For more information see https://docs.lammps.org/err0027 (src/domain.cpp:1052)
Per MPI rank memory allocation (min/avg/max) = 17.52 | 17.52 | 17.52 Mbytes
   Step          Temp          E_pair         E_mol          TotEng         Press     
        97   0             -404.01383      564.59465      160.58082      37460.229    
       130   0             -409.08512      542.05324      132.96812      18350.59     
Loop time of 0.0237937 on 1 procs for 33 steps with 362 atoms

100.0% CPU use with 1 MPI tasks x 1 OpenMP threads

Minimization stats:
  Stopping criterion = linesearch alpha is zero
  Energy initial, next-to-last, final = 
      160.580818085684    132.96811794535    132.96811794535
  Force two-norm initial, final = 179.70849 13.485666
  Force max component initial, final = 19.502873 1.9989822
  Final line search alpha, max atom move = 4.4950153e-11 8.9854558e-11
  Iterations, force evaluations = 33 123

MPI task timing breakdown:
Section |  min time  |  avg time  |  max time  |%varavg| %total
---------------------------------------------------------------
Pair    | 0.018336   | 0.018336   | 0.018336   |   0.0 | 77.06
Bond    | 0.0044774  | 0.0044774  | 0.0044774  |   0.0 | 18.82
Neigh   | 0          | 0          | 0          |   0.0 |  0.00
Comm    | 0.00056408 | 0.00056408 | 0.00056408 |   0.0 |  2.37
Output  | 0          | 0          | 0          |   0.0 |  0.00
Modify  | 0          | 0          | 0          |   0.0 |  0.00
Other   |            | 0.000416   |            |       |  1.75

Nlocal:            362 ave         362 max         362 min
Histogram: 1 0 0 0 0 0 0 0 0 0
Nghost:           2330 ave        2330 max        2330 min
Histogram: 1 0 0 0 0 0 0 0 0 0
Neighs:          23449 ave       23449 max       23449 min
Histogram: 1 0 0 0 0 0 0 0 0 0

Total # of neighbors = 23449
Ave neighs/atom = 64.776243
Ave special neighs/atom = 6.1878453
Neighbor list builds = 0
Dangerous builds = 0

# Obtain new stress tensor

variable tmp equal pxx
variable pxx1 equal ${tmp}
variable pxx1 equal 14387.9710518959
variable tmp equal pyy
variable pyy1 equal ${tmp}
variable pyy1 equal 20978.8683554226
variable tmp equal pzz
variable pzz1 equal ${tmp}
variable pzz1 equal 19684.9318662801
variable tmp equal pxy
variable pxy1 equal ${tmp}
variable pxy1 equal -8951.71880132963
variable tmp equal pxz
variable pxz1 equal ${tmp}
variable pxz1 equal -3511.92135113092
variable tmp equal pyz
variable pyz1 equal ${tmp}
variable pyz1 equal -1485.94057236299

# Compute elastic constant from pressure tensor

variable C1neg equal ${d1}
variable C1neg equal 25.6909114924546
variable C2neg equal ${d2}
variable C2neg equal 34.915687046827
variable C3neg equal ${d3}
variable C3neg equal 69.7795113382821
variable C4neg equal ${d4}
variable C4neg equal -0.7631659184327
variable C5neg equal ${d5}
variable C5neg equal 0.0202143291491007
variable C6neg equal ${d6}
variable C6neg equal 5.1734161620888

# Reset box and simulation parameters

clear
OMP_NUM_THREADS environment is not set. Defaulting to 1 thread.
  using 1 OpenMP thread(s) per MPI task
box tilt large

The 'box' command has been removed and will be ignored

read_restart restart_333U-50C-1-vasp.equil
Reading restart file ...
  restart file = 10 Sep 2025, LAMMPS = 10 Sep 2025
  restoring atom style full from restart
  triclinic box = (-0.00058626085 -0.00066106734 -0.00037626902) to (17.142294 12.825807 17.587033) with tilt (-8.3828221 0.030517306 0.30273095)
WARNING: Triclinic box skew is large. LAMMPS will run inefficiently. (src/domain.cpp:221)
  1 by 1 by 1 MPI processor grid
  restoring pair style lj/cut from restart
  restoring bond style harmonic from restart
  restoring angle style hybrid from restart
  restoring dihedral style harmonic from restart
  362 atoms
  387 bonds
  733 angles
  915 dihedrals
Finding 1-2 1-3 1-4 neighbors ...
  special bond factors lj:    0        0        1       
  special bond factors coul:  0        0        1       
     4 = max # of 1-2 neighbors
     8 = max # of 1-3 neighbors
    12 = max # of special neighbors
  special bonds CPU = 0.000 seconds
  read_restart CPU = 0.001 seconds
include ./input/angles_333U-50C-1-vasp.mod
angle_style hybrid fourier cosine/periodic
angle_coeff 1 fourier 114.246973        0.343737        0.374972        0.281246
angle_coeff 2 fourier 157.882480        0.343737        0.374972        0.281246
angle_coeff 3 fourier 221.735285        0.343737        0.374972        0.281246
angle_coeff 4 fourier 32.417871        0.343737        0.374972        0.281246
angle_coeff 5 fourier 83.380072        0.343737        0.374972        0.281246
angle_coeff 6 fourier 58.020602        0.343737        0.374972        0.281246
angle_coeff 7 fourier 90.420412        0.343737        0.374972        0.281246
angle_coeff 8 fourier 75.498766        0.343737        0.374972        0.281246
angle_coeff 9 cosine/periodic 88.853997              -1               3

# Positive deformation

variable delta equal ${up}*${len0}
variable delta equal 0.02*${len0}
variable delta equal 0.02*17.5874095380314
variable deltaxy equal ${up}*xy
variable deltaxy equal 0.02*xy
variable deltaxz equal ${up}*xz
variable deltaxz equal 0.02*xz
variable deltayz equal ${up}*yz
variable deltayz equal 0.02*yz
if "${dir} == 1" then    "change_box all x delta 0 ${delta} xy delta ${deltaxy} xz delta ${deltaxz} remap units box"
if "${dir} == 2" then    "change_box all y delta 0 ${delta} yz delta ${deltayz} remap units box"
if "${dir} == 3" then    "change_box all z delta 0 ${delta} remap units box"
change_box all z delta 0 ${delta} remap units box
change_box all z delta 0 0.351748190760628 remap units box
Changing box ...
WARNING: Triclinic box skew is large. LAMMPS will run inefficiently. (src/domain.cpp:221)
  triclinic box = (-0.00058626085 -0.00066106734 -0.00037626902) to (17.142294 12.825807 17.938781) with tilt (-8.3828221 0.030517306 0.30273095)
if "${dir} == 4" then    "change_box all yz delta ${delta} remap units box"
if "${dir} == 5" then    "change_box all xz delta ${delta} remap units box"
if "${dir} == 6" then    "change_box all xy delta ${delta} remap units box"

# Relax atoms positions

minimize ${etol} ${ftol} ${maxiter} ${maxeval}
minimize 0 ${ftol} ${maxiter} ${maxeval}
minimize 0 1e-10 ${maxiter} ${maxeval}
minimize 0 1e-10 100000 ${maxeval}
minimize 0 1e-10 100000 100000
Generated 6 of 6 mixed pair_coeff terms from arithmetic mixing rule
Neighbor list info ...
  update: every = 1 steps, delay = 0 steps, check = yes
  max neighbors/atom: 2000, page size: 100000
  master list distance cutoff = 7
  ghost atom cutoff = 7
  binsize = 3.5, bins = 8 4 6
  1 neighbor lists, perpetual/occasional/extra = 1 0 0
  (1) pair lj/cut, perpetual
      attributes: half, newton on
      pair build: half/bin/newton/tri
      stencil: half/bin/3d/tri
      bin: standard
WARNING: Inconsistent image flags
For more information see https://docs.lammps.org/err0027 (src/domain.cpp:1052)
Per MPI rank memory allocation (min/avg/max) = 17.52 | 17.52 | 17.52 Mbytes
   Step          Temp          E_pair         E_mol          TotEng         Press     
        97   0             -451.54572      600.26388      148.71816     -17098.322    
       111   0             -448.119        570.92471      122.80571      1473.069     
Loop time of 0.0162621 on 1 procs for 14 steps with 362 atoms

99.9% CPU use with 1 MPI tasks x 1 OpenMP threads

Minimization stats:
  Stopping criterion = linesearch alpha is zero
  Energy initial, next-to-last, final = 
      148.718155351625   122.805714228102   122.805714228102
  Force two-norm initial, final = 180.74139 25.658959
  Force max component initial, final = 19.277093 3.861334
  Final line search alpha, max atom move = 9.9552918e-12 3.8440706e-11
  Iterations, force evaluations = 14 86

MPI task timing breakdown:
Section |  min time  |  avg time  |  max time  |%varavg| %total
---------------------------------------------------------------
Pair    | 0.012336   | 0.012336   | 0.012336   |   0.0 | 75.86
Bond    | 0.0031675  | 0.0031675  | 0.0031675  |   0.0 | 19.48
Neigh   | 0          | 0          | 0          |   0.0 |  0.00
Comm    | 0.00039241 | 0.00039241 | 0.00039241 |   0.0 |  2.41
Output  | 0          | 0          | 0          |   0.0 |  0.00
Modify  | 0          | 0          | 0          |   0.0 |  0.00
Other   |            | 0.0003659  |            |       |  2.25

Nlocal:            362 ave         362 max         362 min
Histogram: 1 0 0 0 0 0 0 0 0 0
Nghost:           2293 ave        2293 max        2293 min
Histogram: 1 0 0 0 0 0 0 0 0 0
Neighs:          22498 ave       22498 max       22498 min
Histogram: 1 0 0 0 0 0 0 0 0 0

Total # of neighbors = 22498
Ave neighs/atom = 62.149171
Ave special neighs/atom = 6.1878453
Neighbor list builds = 0
Dangerous builds = 0

# Obtain new stress tensor

variable tmp equal pe
variable e1 equal ${tmp}
variable e1 equal 122.805714228102
variable tmp equal press
variable p1 equal ${tmp}
variable p1 equal 1473.06897096602
variable tmp equal pxx
variable pxx1 equal ${tmp}
variable pxx1 equal 3766.04507651063
variable tmp equal pyy
variable pyy1 equal ${tmp}
variable pyy1 equal 8931.72793703889
variable tmp equal pzz
variable pzz1 equal ${tmp}
variable pzz1 equal -8278.56610065145
variable tmp equal pxy
variable pxy1 equal ${tmp}
variable pxy1 equal -9042.23164912596
variable tmp equal pxz
variable pxz1 equal ${tmp}
variable pxz1 equal -3169.96465391132
variable tmp equal pyz
variable pyz1 equal ${tmp}
variable pyz1 equal -1899.4462860671

# Compute elastic constant from pressure tensor

variable C1pos equal ${d1}
variable C1pos equal 27.4187183844718
variable C2pos equal ${d2}
variable C2pos equal 25.3200150450916
variable C3pos equal ${d3}
variable C3pos equal 70.0379784963757
variable C4pos equal ${d4}
variable C4pos equal 2.83069448695325
variable C5pos equal ${d5}
variable C5pos equal -1.7299978152471
variable C6pos equal ${d6}
variable C6pos equal -4.72085192310715

# Combine positive and negative

variable C1${dir} equal 0.5*(${C1neg}+${C1pos})
variable C13 equal 0.5*(${C1neg}+${C1pos})
variable C13 equal 0.5*(25.6909114924546+${C1pos})
variable C13 equal 0.5*(25.6909114924546+27.4187183844718)
variable C2${dir} equal 0.5*(${C2neg}+${C2pos})
variable C23 equal 0.5*(${C2neg}+${C2pos})
variable C23 equal 0.5*(34.915687046827+${C2pos})
variable C23 equal 0.5*(34.915687046827+25.3200150450916)
variable C3${dir} equal 0.5*(${C3neg}+${C3pos})
variable C33 equal 0.5*(${C3neg}+${C3pos})
variable C33 equal 0.5*(69.7795113382821+${C3pos})
variable C33 equal 0.5*(69.7795113382821+70.0379784963757)
variable C4${dir} equal 0.5*(${C4neg}+${C4pos})
variable C43 equal 0.5*(${C4neg}+${C4pos})
variable C43 equal 0.5*(-0.7631659184327+${C4pos})
variable C43 equal 0.5*(-0.7631659184327+2.83069448695325)
variable C5${dir} equal 0.5*(${C5neg}+${C5pos})
variable C53 equal 0.5*(${C5neg}+${C5pos})
variable C53 equal 0.5*(0.0202143291491007+${C5pos})
variable C53 equal 0.5*(0.0202143291491007+-1.7299978152471)
variable C6${dir} equal 0.5*(${C6neg}+${C6pos})
variable C63 equal 0.5*(${C6neg}+${C6pos})
variable C63 equal 0.5*(5.1734161620888+${C6pos})
variable C63 equal 0.5*(5.1734161620888+-4.72085192310715)

# Delete dir to make sure it is not reused

variable dir delete

# uyz Perturbation

variable dir equal 4
include ./input/displace_333U-50C-1-vasp.mod
if "${dir} == 1" then    "variable len0 equal ${lx0}"
if "${dir} == 2" then    "variable len0 equal ${ly0}"
if "${dir} == 3" then    "variable len0 equal ${lz0}"
if "${dir} == 4" then    "variable len0 equal ${lz0}"
variable len0 equal ${lz0}
variable len0 equal 17.5874095380314
if "${dir} == 5" then    "variable len0 equal ${lz0}"
if "${dir} == 6" then    "variable len0 equal ${ly0}"

# Reset box and simulation parameters

clear
OMP_NUM_THREADS environment is not set. Defaulting to 1 thread.
  using 1 OpenMP thread(s) per MPI task
box tilt large

The 'box' command has been removed and will be ignored

read_restart restart_333U-50C-1-vasp.equil
Reading restart file ...
  restart file = 10 Sep 2025, LAMMPS = 10 Sep 2025
  restoring atom style full from restart
  triclinic box = (-0.00058626085 -0.00066106734 -0.00037626902) to (17.142294 12.825807 17.587033) with tilt (-8.3828221 0.030517306 0.30273095)
WARNING: Triclinic box skew is large. LAMMPS will run inefficiently. (src/domain.cpp:221)
  1 by 1 by 1 MPI processor grid
  restoring pair style lj/cut from restart
  restoring bond style harmonic from restart
  restoring angle style hybrid from restart
  restoring dihedral style harmonic from restart
  362 atoms
  387 bonds
  733 angles
  915 dihedrals
Finding 1-2 1-3 1-4 neighbors ...
  special bond factors lj:    0        0        1       
  special bond factors coul:  0        0        1       
     4 = max # of 1-2 neighbors
     8 = max # of 1-3 neighbors
    12 = max # of special neighbors
  special bonds CPU = 0.000 seconds
  read_restart CPU = 0.001 seconds
include ./input/angles_333U-50C-1-vasp.mod
angle_style hybrid fourier cosine/periodic
angle_coeff 1 fourier 114.246973        0.343737        0.374972        0.281246
angle_coeff 2 fourier 157.882480        0.343737        0.374972        0.281246
angle_coeff 3 fourier 221.735285        0.343737        0.374972        0.281246
angle_coeff 4 fourier 32.417871        0.343737        0.374972        0.281246
angle_coeff 5 fourier 83.380072        0.343737        0.374972        0.281246
angle_coeff 6 fourier 58.020602        0.343737        0.374972        0.281246
angle_coeff 7 fourier 90.420412        0.343737        0.374972        0.281246
angle_coeff 8 fourier 75.498766        0.343737        0.374972        0.281246
angle_coeff 9 cosine/periodic 88.853997              -1               3

# Negative deformation

variable delta equal -${up}*${len0}
variable delta equal -0.02*${len0}
variable delta equal -0.02*17.5874095380314
variable deltaxy equal -${up}*xy
variable deltaxy equal -0.02*xy
variable deltaxz equal -${up}*xz
variable deltaxz equal -0.02*xz
variable deltayz equal -${up}*yz
variable deltayz equal -0.02*yz
if "${dir} == 1" then    "change_box all x delta 0 ${delta} xy delta ${deltaxy} xz delta ${deltaxz} remap units box"
if "${dir} == 2" then    "change_box all y delta 0 ${delta} yz delta ${deltayz} remap units box"
if "${dir} == 3" then    "change_box all z delta 0 ${delta} remap units box"
if "${dir} == 4" then    "change_box all yz delta ${delta} remap units box"
change_box all yz delta ${delta} remap units box
change_box all yz delta -0.351748190760628 remap units box
Changing box ...
WARNING: Triclinic box skew is large. LAMMPS will run inefficiently. (src/domain.cpp:221)
  triclinic box = (-0.00058626085 -0.00066106734 -0.00037626902) to (17.142294 12.825807 17.587033) with tilt (-8.3828221 0.030517306 -0.049017237)
if "${dir} == 5" then    "change_box all xz delta ${delta} remap units box"
if "${dir} == 6" then    "change_box all xy delta ${delta} remap units box"

# Relax atoms positions

minimize ${etol} ${ftol} ${maxiter} ${maxeval}
minimize 0 ${ftol} ${maxiter} ${maxeval}
minimize 0 1e-10 ${maxiter} ${maxeval}
minimize 0 1e-10 100000 ${maxeval}
minimize 0 1e-10 100000 100000
Generated 6 of 6 mixed pair_coeff terms from arithmetic mixing rule
Neighbor list info ...
  update: every = 1 steps, delay = 0 steps, check = yes
  max neighbors/atom: 2000, page size: 100000
  master list distance cutoff = 7
  ghost atom cutoff = 7
  binsize = 3.5, bins = 8 4 6
  1 neighbor lists, perpetual/occasional/extra = 1 0 0
  (1) pair lj/cut, perpetual
      attributes: half, newton on
      pair build: half/bin/newton/tri
      stencil: half/bin/3d/tri
      bin: standard
WARNING: Inconsistent image flags
For more information see https://docs.lammps.org/err0027 (src/domain.cpp:1052)
Per MPI rank memory allocation (min/avg/max) = 17.52 | 17.52 | 17.52 Mbytes
   Step          Temp          E_pair         E_mol          TotEng         Press     
        97   0             -429.39922      565.00723      135.60801      9525.0962    
       131   0             -427.54928      545.58342      118.03414      9937.5881    
Loop time of 0.0234508 on 1 procs for 34 steps with 362 atoms

100.0% CPU use with 1 MPI tasks x 1 OpenMP threads

Minimization stats:
  Stopping criterion = linesearch alpha is zero
  Energy initial, next-to-last, final = 
      135.608012498147   118.034141460905   118.034141460905
  Force two-norm initial, final = 126.55392 16.401017
  Force max component initial, final = 14.715469 2.2910523
  Final line search alpha, max atom move = 4.3655921e-11 1.00018e-10
  Iterations, force evaluations = 34 121

MPI task timing breakdown:
Section |  min time  |  avg time  |  max time  |%varavg| %total
---------------------------------------------------------------
Pair    | 0.017946   | 0.017946   | 0.017946   |   0.0 | 76.53
Bond    | 0.004526   | 0.004526   | 0.004526   |   0.0 | 19.30
Neigh   | 0          | 0          | 0          |   0.0 |  0.00
Comm    | 0.00054165 | 0.00054165 | 0.00054165 |   0.0 |  2.31
Output  | 0          | 0          | 0          |   0.0 |  0.00
Modify  | 0          | 0          | 0          |   0.0 |  0.00
Other   |            | 0.000437   |            |       |  1.86

Nlocal:            362 ave         362 max         362 min
Histogram: 1 0 0 0 0 0 0 0 0 0
Nghost:           2312 ave        2312 max        2312 min
Histogram: 1 0 0 0 0 0 0 0 0 0
Neighs:          22993 ave       22993 max       22993 min
Histogram: 1 0 0 0 0 0 0 0 0 0

Total # of neighbors = 22993
Ave neighs/atom = 63.516575
Ave special neighs/atom = 6.1878453
Neighbor list builds = 0
Dangerous builds = 0

# Obtain new stress tensor

variable tmp equal pxx
variable pxx1 equal ${tmp}
variable pxx1 equal 7515.30234934071
variable tmp equal pyy
variable pyy1 equal ${tmp}
variable pyy1 equal 15003.9068464769
variable tmp equal pzz
variable pzz1 equal ${tmp}
variable pzz1 equal 7293.55501399532
variable tmp equal pxy
variable pxy1 equal ${tmp}
variable pxy1 equal -8500.08551646094
variable tmp equal pxz
variable pxz1 equal ${tmp}
variable pxz1 equal -4049.76957351821
variable tmp equal pyz
variable pyz1 equal ${tmp}
variable pyz1 equal 2531.46515830513

# Compute elastic constant from pressure tensor

variable C1neg equal ${d1}
variable C1neg equal -8.67243202032135
variable C2neg equal ${d2}
variable C2neg equal 5.04087950209851
variable C3neg equal ${d3}
variable C3neg equal 7.82262707685815
variable C4neg equal ${d4}
variable C4neg equal 19.3238627349079
variable C5neg equal ${d5}
variable C5neg equal -2.66902678278735
variable C6neg equal ${d6}
variable C6neg equal 7.43158258643225

# Reset box and simulation parameters

clear
OMP_NUM_THREADS environment is not set. Defaulting to 1 thread.
  using 1 OpenMP thread(s) per MPI task
box tilt large

The 'box' command has been removed and will be ignored

read_restart restart_333U-50C-1-vasp.equil
Reading restart file ...
  restart file = 10 Sep 2025, LAMMPS = 10 Sep 2025
  restoring atom style full from restart
  triclinic box = (-0.00058626085 -0.00066106734 -0.00037626902) to (17.142294 12.825807 17.587033) with tilt (-8.3828221 0.030517306 0.30273095)
WARNING: Triclinic box skew is large. LAMMPS will run inefficiently. (src/domain.cpp:221)
  1 by 1 by 1 MPI processor grid
  restoring pair style lj/cut from restart
  restoring bond style harmonic from restart
  restoring angle style hybrid from restart
  restoring dihedral style harmonic from restart
  362 atoms
  387 bonds
  733 angles
  915 dihedrals
Finding 1-2 1-3 1-4 neighbors ...
  special bond factors lj:    0        0        1       
  special bond factors coul:  0        0        1       
     4 = max # of 1-2 neighbors
     8 = max # of 1-3 neighbors
    12 = max # of special neighbors
  special bonds CPU = 0.000 seconds
  read_restart CPU = 0.001 seconds
include ./input/angles_333U-50C-1-vasp.mod
angle_style hybrid fourier cosine/periodic
angle_coeff 1 fourier 114.246973        0.343737        0.374972        0.281246
angle_coeff 2 fourier 157.882480        0.343737        0.374972        0.281246
angle_coeff 3 fourier 221.735285        0.343737        0.374972        0.281246
angle_coeff 4 fourier 32.417871        0.343737        0.374972        0.281246
angle_coeff 5 fourier 83.380072        0.343737        0.374972        0.281246
angle_coeff 6 fourier 58.020602        0.343737        0.374972        0.281246
angle_coeff 7 fourier 90.420412        0.343737        0.374972        0.281246
angle_coeff 8 fourier 75.498766        0.343737        0.374972        0.281246
angle_coeff 9 cosine/periodic 88.853997              -1               3

# Positive deformation

variable delta equal ${up}*${len0}
variable delta equal 0.02*${len0}
variable delta equal 0.02*17.5874095380314
variable deltaxy equal ${up}*xy
variable deltaxy equal 0.02*xy
variable deltaxz equal ${up}*xz
variable deltaxz equal 0.02*xz
variable deltayz equal ${up}*yz
variable deltayz equal 0.02*yz
if "${dir} == 1" then    "change_box all x delta 0 ${delta} xy delta ${deltaxy} xz delta ${deltaxz} remap units box"
if "${dir} == 2" then    "change_box all y delta 0 ${delta} yz delta ${deltayz} remap units box"
if "${dir} == 3" then    "change_box all z delta 0 ${delta} remap units box"
if "${dir} == 4" then    "change_box all yz delta ${delta} remap units box"
change_box all yz delta ${delta} remap units box
change_box all yz delta 0.351748190760628 remap units box
Changing box ...
WARNING: Triclinic box skew is large. LAMMPS will run inefficiently. (src/domain.cpp:221)
  triclinic box = (-0.00058626085 -0.00066106734 -0.00037626902) to (17.142294 12.825807 17.587033) with tilt (-8.3828221 0.030517306 0.65447914)
if "${dir} == 5" then    "change_box all xz delta ${delta} remap units box"
if "${dir} == 6" then    "change_box all xy delta ${delta} remap units box"

# Relax atoms positions

minimize ${etol} ${ftol} ${maxiter} ${maxeval}
minimize 0 ${ftol} ${maxiter} ${maxeval}
minimize 0 1e-10 ${maxiter} ${maxeval}
minimize 0 1e-10 100000 ${maxeval}
minimize 0 1e-10 100000 100000
Generated 6 of 6 mixed pair_coeff terms from arithmetic mixing rule
Neighbor list info ...
  update: every = 1 steps, delay = 0 steps, check = yes
  max neighbors/atom: 2000, page size: 100000
  master list distance cutoff = 7
  ghost atom cutoff = 7
  binsize = 3.5, bins = 8 4 6
  1 neighbor lists, perpetual/occasional/extra = 1 0 0
  (1) pair lj/cut, perpetual
      attributes: half, newton on
      pair build: half/bin/newton/tri
      stencil: half/bin/3d/tri
      bin: standard
WARNING: Inconsistent image flags
For more information see https://docs.lammps.org/err0027 (src/domain.cpp:1052)
Per MPI rank memory allocation (min/avg/max) = 17.52 | 17.52 | 17.52 Mbytes
   Step          Temp          E_pair         E_mol          TotEng         Press     
        97   0             -429.1666       568.0949       138.9283       9489.9167    
       130   0             -430.2775       554.43019      124.15269      9717.3829    
Loop time of 0.0229998 on 1 procs for 33 steps with 362 atoms

100.0% CPU use with 1 MPI tasks x 1 OpenMP threads

Minimization stats:
  Stopping criterion = linesearch alpha is zero
  Energy initial, next-to-last, final = 
      138.928298478756   124.152689414304   124.152689414304
  Force two-norm initial, final = 124.7635 12.642788
  Force max component initial, final = 13.70588 1.6187541
  Final line search alpha, max atom move = 4.0038684e-11 6.4812783e-11
  Iterations, force evaluations = 33 121

MPI task timing breakdown:
Section |  min time  |  avg time  |  max time  |%varavg| %total
---------------------------------------------------------------
Pair    | 0.017564   | 0.017564   | 0.017564   |   0.0 | 76.36
Bond    | 0.0044561  | 0.0044561  | 0.0044561  |   0.0 | 19.37
Neigh   | 0          | 0          | 0          |   0.0 |  0.00
Comm    | 0.00056539 | 0.00056539 | 0.00056539 |   0.0 |  2.46
Output  | 0          | 0          | 0          |   0.0 |  0.00
Modify  | 0          | 0          | 0          |   0.0 |  0.00
Other   |            | 0.0004148  |            |       |  1.80

Nlocal:            362 ave         362 max         362 min
Histogram: 1 0 0 0 0 0 0 0 0 0
Nghost:           2312 ave        2312 max        2312 min
Histogram: 1 0 0 0 0 0 0 0 0 0
Neighs:          22978 ave       22978 max       22978 min
Histogram: 1 0 0 0 0 0 0 0 0 0

Total # of neighbors = 22978
Ave neighs/atom = 63.475138
Ave special neighs/atom = 6.1878453
Neighbor list builds = 0
Dangerous builds = 0

# Obtain new stress tensor

variable tmp equal pe
variable e1 equal ${tmp}
variable e1 equal 124.152689414304
variable tmp equal press
variable p1 equal ${tmp}
variable p1 equal 9717.3829286961
variable tmp equal pxx
variable pxx1 equal ${tmp}
variable pxx1 equal 8162.87720725486
variable tmp equal pyy
variable pyy1 equal ${tmp}
variable pyy1 equal 14200.5455791788
variable tmp equal pzz
variable pzz1 equal ${tmp}
variable pzz1 equal 6788.72599965466
variable tmp equal pxy
variable pxy1 equal ${tmp}
variable pxy1 equal -9162.63400415225
variable tmp equal pxz
variable pxz1 equal ${tmp}
variable pxz1 equal -1563.1593894101
variable tmp equal pyz
variable pyz1 equal ${tmp}
variable pyz1 equal -6096.82794519146

# Compute elastic constant from pressure tensor

variable C1pos equal ${d1}
variable C1pos equal 5.4345577307506
variable C2pos equal ${d2}
variable C2pos equal -1.02407316560801
variable C3pos equal ${d3}
variable C3pos equal -5.29848200515485
variable C4pos equal ${d4}
variable C4pos equal 23.8176027825751
variable C5pos equal ${d5}
variable C5pos equal -9.7640241377532
variable C6pos equal ${d6}
variable C6pos equal -4.1188401479757

# Combine positive and negative

variable C1${dir} equal 0.5*(${C1neg}+${C1pos})
variable C14 equal 0.5*(${C1neg}+${C1pos})
variable C14 equal 0.5*(-8.67243202032135+${C1pos})
variable C14 equal 0.5*(-8.67243202032135+5.4345577307506)
variable C2${dir} equal 0.5*(${C2neg}+${C2pos})
variable C24 equal 0.5*(${C2neg}+${C2pos})
variable C24 equal 0.5*(5.04087950209851+${C2pos})
variable C24 equal 0.5*(5.04087950209851+-1.02407316560801)
variable C3${dir} equal 0.5*(${C3neg}+${C3pos})
variable C34 equal 0.5*(${C3neg}+${C3pos})
variable C34 equal 0.5*(7.82262707685815+${C3pos})
variable C34 equal 0.5*(7.82262707685815+-5.29848200515485)
variable C4${dir} equal 0.5*(${C4neg}+${C4pos})
variable C44 equal 0.5*(${C4neg}+${C4pos})
variable C44 equal 0.5*(19.3238627349079+${C4pos})
variable C44 equal 0.5*(19.3238627349079+23.8176027825751)
variable C5${dir} equal 0.5*(${C5neg}+${C5pos})
variable C54 equal 0.5*(${C5neg}+${C5pos})
variable C54 equal 0.5*(-2.66902678278735+${C5pos})
variable C54 equal 0.5*(-2.66902678278735+-9.7640241377532)
variable C6${dir} equal 0.5*(${C6neg}+${C6pos})
variable C64 equal 0.5*(${C6neg}+${C6pos})
variable C64 equal 0.5*(7.43158258643225+${C6pos})
variable C64 equal 0.5*(7.43158258643225+-4.1188401479757)

# Delete dir to make sure it is not reused

variable dir delete

# uxz Perturbation

variable dir equal 5
include ./input/displace_333U-50C-1-vasp.mod
if "${dir} == 1" then    "variable len0 equal ${lx0}"
if "${dir} == 2" then    "variable len0 equal ${ly0}"
if "${dir} == 3" then    "variable len0 equal ${lz0}"
if "${dir} == 4" then    "variable len0 equal ${lz0}"
if "${dir} == 5" then    "variable len0 equal ${lz0}"
variable len0 equal ${lz0}
variable len0 equal 17.5874095380314
if "${dir} == 6" then    "variable len0 equal ${ly0}"

# Reset box and simulation parameters

clear
OMP_NUM_THREADS environment is not set. Defaulting to 1 thread.
  using 1 OpenMP thread(s) per MPI task
box tilt large

The 'box' command has been removed and will be ignored

read_restart restart_333U-50C-1-vasp.equil
Reading restart file ...
  restart file = 10 Sep 2025, LAMMPS = 10 Sep 2025
  restoring atom style full from restart
  triclinic box = (-0.00058626085 -0.00066106734 -0.00037626902) to (17.142294 12.825807 17.587033) with tilt (-8.3828221 0.030517306 0.30273095)
WARNING: Triclinic box skew is large. LAMMPS will run inefficiently. (src/domain.cpp:221)
  1 by 1 by 1 MPI processor grid
  restoring pair style lj/cut from restart
  restoring bond style harmonic from restart
  restoring angle style hybrid from restart
  restoring dihedral style harmonic from restart
  362 atoms
  387 bonds
  733 angles
  915 dihedrals
Finding 1-2 1-3 1-4 neighbors ...
  special bond factors lj:    0        0        1       
  special bond factors coul:  0        0        1       
     4 = max # of 1-2 neighbors
     8 = max # of 1-3 neighbors
    12 = max # of special neighbors
  special bonds CPU = 0.000 seconds
  read_restart CPU = 0.001 seconds
include ./input/angles_333U-50C-1-vasp.mod
angle_style hybrid fourier cosine/periodic
angle_coeff 1 fourier 114.246973        0.343737        0.374972        0.281246
angle_coeff 2 fourier 157.882480        0.343737        0.374972        0.281246
angle_coeff 3 fourier 221.735285        0.343737        0.374972        0.281246
angle_coeff 4 fourier 32.417871        0.343737        0.374972        0.281246
angle_coeff 5 fourier 83.380072        0.343737        0.374972        0.281246
angle_coeff 6 fourier 58.020602        0.343737        0.374972        0.281246
angle_coeff 7 fourier 90.420412        0.343737        0.374972        0.281246
angle_coeff 8 fourier 75.498766        0.343737        0.374972        0.281246
angle_coeff 9 cosine/periodic 88.853997              -1               3

# Negative deformation

variable delta equal -${up}*${len0}
variable delta equal -0.02*${len0}
variable delta equal -0.02*17.5874095380314
variable deltaxy equal -${up}*xy
variable deltaxy equal -0.02*xy
variable deltaxz equal -${up}*xz
variable deltaxz equal -0.02*xz
variable deltayz equal -${up}*yz
variable deltayz equal -0.02*yz
if "${dir} == 1" then    "change_box all x delta 0 ${delta} xy delta ${deltaxy} xz delta ${deltaxz} remap units box"
if "${dir} == 2" then    "change_box all y delta 0 ${delta} yz delta ${deltayz} remap units box"
if "${dir} == 3" then    "change_box all z delta 0 ${delta} remap units box"
if "${dir} == 4" then    "change_box all yz delta ${delta} remap units box"
if "${dir} == 5" then    "change_box all xz delta ${delta} remap units box"
change_box all xz delta ${delta} remap units box
change_box all xz delta -0.351748190760628 remap units box
Changing box ...
WARNING: Triclinic box skew is large. LAMMPS will run inefficiently. (src/domain.cpp:221)
  triclinic box = (-0.00058626085 -0.00066106734 -0.00037626902) to (17.142294 12.825807 17.587033) with tilt (-8.3828221 -0.32123088 0.30273095)
if "${dir} == 6" then    "change_box all xy delta ${delta} remap units box"

# Relax atoms positions

minimize ${etol} ${ftol} ${maxiter} ${maxeval}
minimize 0 ${ftol} ${maxiter} ${maxeval}
minimize 0 1e-10 ${maxiter} ${maxeval}
minimize 0 1e-10 100000 ${maxeval}
minimize 0 1e-10 100000 100000
[...]
angle_coeff 8 fourier 75.498766        0.343737        0.374972        0.281246
angle_coeff 9 cosine/periodic 88.853997              -1               3

# Negative deformation

variable delta equal -${up}*${len0}
variable delta equal -0.02*${len0}
variable delta equal -0.02*12.8264681346712
variable deltaxy equal -${up}*xy
variable deltaxy equal -0.02*xy
variable deltaxz equal -${up}*xz
variable deltaxz equal -0.02*xz
variable deltayz equal -${up}*yz
variable deltayz equal -0.02*yz
if "${dir} == 1" then    "change_box all x delta 0 ${delta} xy delta ${deltaxy} xz delta ${deltaxz} remap units box"
if "${dir} == 2" then    "change_box all y delta 0 ${delta} yz delta ${deltayz} remap units box"
if "${dir} == 3" then    "change_box all z delta 0 ${delta} remap units box"
if "${dir} == 4" then    "change_box all yz delta ${delta} remap units box"
if "${dir} == 5" then    "change_box all xz delta ${delta} remap units box"
if "${dir} == 6" then    "change_box all xy delta ${delta} remap units box"
change_box all xy delta ${delta} remap units box
change_box all xy delta -0.256529362693424 remap units box
Changing box ...
WARNING: Triclinic box skew is large. LAMMPS will run inefficiently. (src/domain.cpp:221)
  triclinic box = (-0.00058626085 -0.00066106734 -0.00037626902) to (17.142294 12.825807 17.587033) with tilt (-8.6393515 0.030517306 0.30273095)

# Relax atoms positions

minimize ${etol} ${ftol} ${maxiter} ${maxeval}
minimize 0 ${ftol} ${maxiter} ${maxeval}
minimize 0 1e-10 ${maxiter} ${maxeval}
minimize 0 1e-10 100000 ${maxeval}
minimize 0 1e-10 100000 100000
Generated 6 of 6 mixed pair_coeff terms from arithmetic mixing rule
Neighbor list info ...
  update: every = 1 steps, delay = 0 steps, check = yes
  max neighbors/atom: 2000, page size: 100000
  master list distance cutoff = 7
  ghost atom cutoff = 7
  binsize = 3.5, bins = 8 4 6
  1 neighbor lists, perpetual/occasional/extra = 1 0 0
  (1) pair lj/cut, perpetual
      attributes: half, newton on
      pair build: half/bin/newton/tri
      stencil: half/bin/3d/tri
      bin: standard
WARNING: Inconsistent image flags
For more information see https://docs.lammps.org/err0027 (src/domain.cpp:1052)
Per MPI rank memory allocation (min/avg/max) = 17.52 | 17.52 | 17.52 Mbytes
   Step          Temp          E_pair         E_mol          TotEng         Press     
        97   0             -433.66327      558.18651      124.52325      9594.6263    
       108   0             -434.04661      548.50288      114.45627      9357.338     
Loop time of 0.014527 on 1 procs for 11 steps with 362 atoms

100.0% CPU use with 1 MPI tasks x 1 OpenMP threads

Minimization stats:
  Stopping criterion = linesearch alpha is zero
  Energy initial, next-to-last, final = 
      124.523245538992   114.456269438607   114.456269438607
  Force two-norm initial, final = 128.96515 17.358715
  Force max component initial, final = 15.686433 2.7925639
  Final line search alpha, max atom move = 3.1740283e-11 8.8636769e-11
  Iterations, force evaluations = 11 78

MPI task timing breakdown:
Section |  min time  |  avg time  |  max time  |%varavg| %total
---------------------------------------------------------------
Pair    | 0.011111   | 0.011111   | 0.011111   |   0.0 | 76.49
Bond    | 0.0028268  | 0.0028268  | 0.0028268  |   0.0 | 19.46
Neigh   | 0          | 0          | 0          |   0.0 |  0.00
Comm    | 0.00035262 | 0.00035262 | 0.00035262 |   0.0 |  2.43
Output  | 0          | 0          | 0          |   0.0 |  0.00
Modify  | 0          | 0          | 0          |   0.0 |  0.00
Other   |            | 0.0002363  |            |       |  1.63

Nlocal:            362 ave         362 max         362 min
Histogram: 1 0 0 0 0 0 0 0 0 0
Nghost:           2316 ave        2316 max        2316 min
Histogram: 1 0 0 0 0 0 0 0 0 0
Neighs:          22964 ave       22964 max       22964 min
Histogram: 1 0 0 0 0 0 0 0 0 0

Total # of neighbors = 22964
Ave neighs/atom = 63.436464
Ave special neighs/atom = 6.1878453
Neighbor list builds = 0
Dangerous builds = 0

# Obtain new stress tensor

variable tmp equal pxx
variable pxx1 equal ${tmp}
variable pxx1 equal 8588.75217482154
variable tmp equal pyy
variable pyy1 equal ${tmp}
variable pyy1 equal 13755.1224408472
variable tmp equal pzz
variable pzz1 equal ${tmp}
variable pzz1 equal 5728.13946540036
variable tmp equal pxy
variable pxy1 equal ${tmp}
variable pxy1 equal -4060.79992387987
variable tmp equal pxz
variable pxz1 equal ${tmp}
variable pxz1 equal -4158.77245472679
variable tmp equal pyz
variable pyz1 equal ${tmp}
variable pyz1 equal -1052.7964311334

# Compute elastic constant from pressure tensor

variable C1neg equal ${d1}
variable C1neg equal -3.3051828929172
variable C2neg equal ${d2}
variable C2neg equal -1.20304252604999
variable C3neg equal ${d3}
variable C3neg equal -0.0044506661166497
variable C4neg equal ${d4}
variable C4neg equal 1.40255478771525
variable C5neg equal ${d5}
variable C5neg equal -3.21404118883025
variable C6neg equal ${d6}
variable C6neg equal 29.6280105493376

# Reset box and simulation parameters

clear
OMP_NUM_THREADS environment is not set. Defaulting to 1 thread.
  using 1 OpenMP thread(s) per MPI task
box tilt large

The 'box' command has been removed and will be ignored

read_restart restart_333U-50C-1-vasp.equil
Reading restart file ...
  restart file = 10 Sep 2025, LAMMPS = 10 Sep 2025
  restoring atom style full from restart
  triclinic box = (-0.00058626085 -0.00066106734 -0.00037626902) to (17.142294 12.825807 17.587033) with tilt (-8.3828221 0.030517306 0.30273095)
WARNING: Triclinic box skew is large. LAMMPS will run inefficiently. (src/domain.cpp:221)
  1 by 1 by 1 MPI processor grid
  restoring pair style lj/cut from restart
  restoring bond style harmonic from restart
  restoring angle style hybrid from restart
  restoring dihedral style harmonic from restart
  362 atoms
  387 bonds
  733 angles
  915 dihedrals
Finding 1-2 1-3 1-4 neighbors ...
  special bond factors lj:    0        0        1       
  special bond factors coul:  0        0        1       
     4 = max # of 1-2 neighbors
     8 = max # of 1-3 neighbors
    12 = max # of special neighbors
  special bonds CPU = 0.000 seconds
  read_restart CPU = 0.001 seconds
include ./input/angles_333U-50C-1-vasp.mod
angle_style hybrid fourier cosine/periodic
angle_coeff 1 fourier 114.246973        0.343737        0.374972        0.281246
angle_coeff 2 fourier 157.882480        0.343737        0.374972        0.281246
angle_coeff 3 fourier 221.735285        0.343737        0.374972        0.281246
angle_coeff 4 fourier 32.417871        0.343737        0.374972        0.281246
angle_coeff 5 fourier 83.380072        0.343737        0.374972        0.281246
angle_coeff 6 fourier 58.020602        0.343737        0.374972        0.281246
angle_coeff 7 fourier 90.420412        0.343737        0.374972        0.281246
angle_coeff 8 fourier 75.498766        0.343737        0.374972        0.281246
angle_coeff 9 cosine/periodic 88.853997              -1               3

# Positive deformation

variable delta equal ${up}*${len0}
variable delta equal 0.02*${len0}
variable delta equal 0.02*12.8264681346712
variable deltaxy equal ${up}*xy
variable deltaxy equal 0.02*xy
variable deltaxz equal ${up}*xz
variable deltaxz equal 0.02*xz
variable deltayz equal ${up}*yz
variable deltayz equal 0.02*yz
if "${dir} == 1" then    "change_box all x delta 0 ${delta} xy delta ${deltaxy} xz delta ${deltaxz} remap units box"
if "${dir} == 2" then    "change_box all y delta 0 ${delta} yz delta ${deltayz} remap units box"
if "${dir} == 3" then    "change_box all z delta 0 ${delta} remap units box"
if "${dir} == 4" then    "change_box all yz delta ${delta} remap units box"
if "${dir} == 5" then    "change_box all xz delta ${delta} remap units box"
if "${dir} == 6" then    "change_box all xy delta ${delta} remap units box"
change_box all xy delta ${delta} remap units box
change_box all xy delta 0.256529362693424 remap units box
Changing box ...
WARNING: Triclinic box skew is large. LAMMPS will run inefficiently. (src/domain.cpp:221)
  triclinic box = (-0.00058626085 -0.00066106734 -0.00037626902) to (17.142294 12.825807 17.587033) with tilt (-8.1262927 0.030517306 0.30273095)

# Relax atoms positions

minimize ${etol} ${ftol} ${maxiter} ${maxeval}
minimize 0 ${ftol} ${maxiter} ${maxeval}
minimize 0 1e-10 ${maxiter} ${maxeval}
minimize 0 1e-10 100000 ${maxeval}
minimize 0 1e-10 100000 100000
Generated 6 of 6 mixed pair_coeff terms from arithmetic mixing rule
Neighbor list info ...
  update: every = 1 steps, delay = 0 steps, check = yes
  max neighbors/atom: 2000, page size: 100000
  master list distance cutoff = 7
  ghost atom cutoff = 7
  binsize = 3.5, bins = 8 4 6
  1 neighbor lists, perpetual/occasional/extra = 1 0 0
  (1) pair lj/cut, perpetual
      attributes: half, newton on
      pair build: half/bin/newton/tri
      stencil: half/bin/3d/tri
      bin: standard
WARNING: Inconsistent image flags
For more information see https://docs.lammps.org/err0027 (src/domain.cpp:1052)
Per MPI rank memory allocation (min/avg/max) = 17.52 | 17.52 | 17.52 Mbytes
   Step          Temp          E_pair         E_mol          TotEng         Press     
        97   0             -426.33221      573.0736       146.74139      9383.7433    
       129   0             -424.05461      555.39192      131.3373       10240.928    
Loop time of 0.0228005 on 1 procs for 32 steps with 362 atoms

100.0% CPU use with 1 MPI tasks x 1 OpenMP threads

Minimization stats:
  Stopping criterion = linesearch alpha is zero
  Energy initial, next-to-last, final = 
      146.741391001357   131.337303762644   131.337303762644
  Force two-norm initial, final = 124.99373 14.401548
  Force max component initial, final = 14.978807 1.9579568
  Final line search alpha, max atom move = 3.8646956e-11 7.5669069e-11
  Iterations, force evaluations = 32 119

MPI task timing breakdown:
Section |  min time  |  avg time  |  max time  |%varavg| %total
---------------------------------------------------------------
Pair    | 0.017484   | 0.017484   | 0.017484   |   0.0 | 76.68
Bond    | 0.004378   | 0.004378   | 0.004378   |   0.0 | 19.20
Neigh   | 0          | 0          | 0          |   0.0 |  0.00
Comm    | 0.00053191 | 0.00053191 | 0.00053191 |   0.0 |  2.33
Output  | 0          | 0          | 0          |   0.0 |  0.00
Modify  | 0          | 0          | 0          |   0.0 |  0.00
Other   |            | 0.0004064  |            |       |  1.78

Nlocal:            362 ave         362 max         362 min
Histogram: 1 0 0 0 0 0 0 0 0 0
Nghost:           2306 ave        2306 max        2306 min
Histogram: 1 0 0 0 0 0 0 0 0 0
Neighs:          22974 ave       22974 max       22974 min
Histogram: 1 0 0 0 0 0 0 0 0 0

Total # of neighbors = 22974
Ave neighs/atom = 63.464088
Ave special neighs/atom = 6.1878453
Neighbor list builds = 0
Dangerous builds = 0

# Obtain new stress tensor

variable tmp equal pe
variable e1 equal ${tmp}
variable e1 equal 131.337303762644
variable tmp equal press
variable p1 equal ${tmp}
variable p1 equal 10240.9280218647
variable tmp equal pxx
variable pxx1 equal ${tmp}
variable pxx1 equal 8121.99734879141
variable tmp equal pyy
variable pyy1 equal ${tmp}
variable pyy1 equal 15808.8177912006
variable tmp equal pzz
variable pzz1 equal ${tmp}
variable pzz1 equal 6791.96892560225
variable tmp equal pxy
variable pxy1 equal ${tmp}
variable pxy1 equal -13062.0252402196
variable tmp equal pxz
variable pxz1 equal ${tmp}
variable pxz1 equal -2414.38680504852
variable tmp equal pyz
variable pyz1 equal ${tmp}
variable pyz1 equal -2162.11264159434

# Compute elastic constant from pressure tensor

variable C1pos equal ${d1}
variable C1pos equal 5.63895702306785
variable C2pos equal ${d2}
variable C2pos equal -9.065434225717
variable C3pos equal ${d3}
variable C3pos equal -5.3146966348928
variable C4pos equal ${d4}
variable C4pos equal 4.14402626458945
variable C5pos equal ${d5}
variable C5pos equal -5.5078870595611
variable C6pos equal ${d6}
variable C6pos equal 15.3781160323611

# Combine positive and negative

variable C1${dir} equal 0.5*(${C1neg}+${C1pos})
variable C16 equal 0.5*(${C1neg}+${C1pos})
variable C16 equal 0.5*(-3.3051828929172+${C1pos})
variable C16 equal 0.5*(-3.3051828929172+5.63895702306785)
variable C2${dir} equal 0.5*(${C2neg}+${C2pos})
variable C26 equal 0.5*(${C2neg}+${C2pos})
variable C26 equal 0.5*(-1.20304252604999+${C2pos})
variable C26 equal 0.5*(-1.20304252604999+-9.065434225717)
variable C3${dir} equal 0.5*(${C3neg}+${C3pos})
variable C36 equal 0.5*(${C3neg}+${C3pos})
variable C36 equal 0.5*(-0.0044506661166497+${C3pos})
variable C36 equal 0.5*(-0.0044506661166497+-5.3146966348928)
variable C4${dir} equal 0.5*(${C4neg}+${C4pos})
variable C46 equal 0.5*(${C4neg}+${C4pos})
variable C46 equal 0.5*(1.40255478771525+${C4pos})
variable C46 equal 0.5*(1.40255478771525+4.14402626458945)
variable C5${dir} equal 0.5*(${C5neg}+${C5pos})
variable C56 equal 0.5*(${C5neg}+${C5pos})
variable C56 equal 0.5*(-3.21404118883025+${C5pos})
variable C56 equal 0.5*(-3.21404118883025+-5.5078870595611)
variable C6${dir} equal 0.5*(${C6neg}+${C6pos})
variable C66 equal 0.5*(${C6neg}+${C6pos})
variable C66 equal 0.5*(29.6280105493376+${C6pos})
variable C66 equal 0.5*(29.6280105493376+15.3781160323611)

# Delete dir to make sure it is not reused

variable dir delete

# Output final values

variable C11all equal ${C11}
variable C11all equal 57.5386849168764
variable C22all equal ${C22}
variable C22all equal 60.3380312339669
variable C33all equal ${C33}
variable C33all equal 69.9087449173289

variable C12all equal 0.5*(${C12}+${C21})
variable C12all equal 0.5*(21.1666032115522+${C21})
variable C12all equal 0.5*(21.1666032115522+23.2694960192927)
variable C13all equal 0.5*(${C13}+${C31})
variable C13all equal 0.5*(26.5548149384632+${C31})
variable C13all equal 0.5*(26.5548149384632+25.96771521568)
variable C23all equal 0.5*(${C23}+${C32})
variable C23all equal 0.5*(30.1178510459593+${C32})
variable C23all equal 0.5*(30.1178510459593+30.2573153588938)

variable C44all equal ${C44}
variable C44all equal 21.5707327587415
variable C55all equal ${C55}
variable C55all equal 19.334749622333
variable C66all equal ${C66}
variable C66all equal 22.5030632908494

variable C14all equal 0.5*(${C14}+${C41})
variable C14all equal 0.5*(-1.61893714478538+${C41})
variable C14all equal 0.5*(-1.61893714478538+-0.18145589801045)
variable C15all equal 0.5*(${C15}+${C51})
variable C15all equal 0.5*(1.4935882468904+${C51})
variable C15all equal 0.5*(1.4935882468904+-0.0274556137564505)
variable C16all equal 0.5*(${C16}+${C61})
variable C16all equal 0.5*(1.16688706507533+${C61})
variable C16all equal 0.5*(1.16688706507533+-5.22216922447032)

variable C24all equal 0.5*(${C24}+${C42})
variable C24all equal 0.5*(2.00840316824525+${C42})
variable C24all equal 0.5*(2.00840316824525+0.4290115039713)
variable C25all equal 0.5*(${C25}+${C52})
variable C25all equal 0.5*(0.688617789462505+${C52})
variable C25all equal 0.5*(0.688617789462505+1.00587344253593)
variable C26all equal 0.5*(${C26}+${C62})
variable C26all equal 0.5*(-5.13423837588349+${C62})
variable C26all equal 0.5*(-5.13423837588349+-2.20426526827758)

variable C34all equal 0.5*(${C34}+${C43})
variable C34all equal 0.5*(1.26207253585165+${C43})
variable C34all equal 0.5*(1.26207253585165+1.03376428426028)
variable C35all equal 0.5*(${C35}+${C53})
variable C35all equal 0.5*(-3.44293384662167+${C53})
variable C35all equal 0.5*(-3.44293384662167+-0.854891743049)
variable C36all equal 0.5*(${C36}+${C63})
variable C36all equal 0.5*(-2.65957365050473+${C63})
variable C36all equal 0.5*(-2.65957365050473+0.226282119490825)

variable C45all equal 0.5*(${C45}+${C54})
variable C45all equal 0.5*(-6.25088417567139+${C54})
variable C45all equal 0.5*(-6.25088417567139+-6.21652546027028)
variable C46all equal 0.5*(${C46}+${C64})
variable C46all equal 0.5*(2.77329052615235+${C64})
variable C46all equal 0.5*(2.77329052615235+1.65637121922828)
variable C56all equal 0.5*(${C56}+${C65})
variable C56all equal 0.5*(-4.36096412419568+${C65})
variable C56all equal 0.5*(-4.36096412419568+-2.99505920525012)

# Average moduli for cubic crystals

variable C11cubic equal (${C11all}+${C22all}+${C33all})/3.0
variable C11cubic equal (57.5386849168764+${C22all}+${C33all})/3.0
variable C11cubic equal (57.5386849168764+60.3380312339669+${C33all})/3.0
variable C11cubic equal (57.5386849168764+60.3380312339669+69.9087449173289)/3.0
variable C12cubic equal (${C12all}+${C13all}+${C23all})/3.0
variable C12cubic equal (22.2180496154225+${C13all}+${C23all})/3.0
variable C12cubic equal (22.2180496154225+26.2612650770716+${C23all})/3.0
variable C12cubic equal (22.2180496154225+26.2612650770716+30.1875832024265)/3.0
variable C44cubic equal (${C44all}+${C55all}+${C66all})/3.0
variable C44cubic equal (21.5707327587415+${C55all}+${C66all})/3.0
variable C44cubic equal (21.5707327587415+19.334749622333+${C66all})/3.0
variable C44cubic equal (21.5707327587415+19.334749622333+22.5030632908494)/3.0

variable bulkmodulus equal (${C11cubic}+2*${C12cubic})/3.0
variable bulkmodulus equal (62.5951536893907+2*${C12cubic})/3.0
variable bulkmodulus equal (62.5951536893907+2*26.2222992983069)/3.0
variable shearmodulus1 equal ${C44cubic}
variable shearmodulus1 equal 21.1361818906413
variable shearmodulus2 equal (${C11cubic}-${C12cubic})/2.0
variable shearmodulus2 equal (62.5951536893907-${C12cubic})/2.0
variable shearmodulus2 equal (62.5951536893907-26.2222992983069)/2.0
variable poissonratio equal 1.0/(1.0+${C11cubic}/${C12cubic})
variable poissonratio equal 1.0/(1.0+62.5951536893907/${C12cubic})
variable poissonratio equal 1.0/(1.0+62.5951536893907/26.2222992983069)

print "Elastic Constant 1 1 = ${C11all}"
Elastic Constant 1 1 = 57.5386849168764
print "Elastic Constant 2 2 = ${C22all}"
Elastic Constant 2 2 = 60.3380312339669
print "Elastic Constant 3 3 = ${C33all}"
Elastic Constant 3 3 = 69.9087449173289

print "Elastic Constant 1 2 = ${C12all}"
Elastic Constant 1 2 = 22.2180496154225
print "Elastic Constant 1 3 = ${C13all}"
Elastic Constant 1 3 = 26.2612650770716
print "Elastic Constant 2 3 = ${C23all}"
Elastic Constant 2 3 = 30.1875832024265

print "Elastic Constant 4 4 = ${C44all}"
Elastic Constant 4 4 = 21.5707327587415
print "Elastic Constant 5 5 = ${C55all}"
Elastic Constant 5 5 = 19.334749622333
print "Elastic Constant 6 6 = ${C66all}"
Elastic Constant 6 6 = 22.5030632908494

print "Elastic Constant 1 4 = ${C14all}"
Elastic Constant 1 4 = -0.900196521397915
print "Elastic Constant 1 5 = ${C15all}"
Elastic Constant 1 5 = 0.733066316566975
print "Elastic Constant 1 6 = ${C16all}"
Elastic Constant 1 6 = -2.02764107969749

print "Elastic Constant 2 4 = ${C24all}"
Elastic Constant 2 4 = 1.21870733610827
print "Elastic Constant 2 5 = ${C25all}"
Elastic Constant 2 5 = 0.847245615999217
print "Elastic Constant 2 6 = ${C26all}"
Elastic Constant 2 6 = -3.66925182208054

print "Elastic Constant 3 4 = ${C34all}"
Elastic Constant 3 4 = 1.14791841005596
print "Elastic Constant 3 5 = ${C35all}"
Elastic Constant 3 5 = -2.14891279483534
print "Elastic Constant 3 6 = ${C36all}"
Elastic Constant 3 6 = -1.21664576550695

print "Elastic Constant 4 5 = ${C45all}"
Elastic Constant 4 5 = -6.23370481797084
print "Elastic Constant 4 6 = ${C46all}"
Elastic Constant 4 6 = 2.21483087269031
print "Elastic Constant 5 6 = ${C56all}"
Elastic Constant 5 6 = -3.6780116647229

print "Bulk Modulus = ${bulkmodulus} ${cunits}"
Bulk Modulus = 38.3465840953348 GPa
print "Shear Modulus 1 = ${shearmodulus1} ${cunits}"
Shear Modulus 1 = 21.1361818906413 GPa
print "Shear Modulus 2 = ${shearmodulus2} ${cunits}"
Shear Modulus 2 = 18.1864271955419 GPa
print "Poisson Ratio = ${poissonratio}"
Poisson Ratio = 0.295238136382261

variable rho equal density
print "density (g/cm^3) = ${rho}"
density (g/cm^3) = 1.70354865994547
Total wall time: 0:00:00
