units           real
atom_style      full
boundary        p p p

pair_style      lj/cut 5.000
bond_style      harmonic
angle_style     hybrid fourier cosine/periodic
dihedral_style  harmonic

special_bonds   lj/coul 0.0 0.0 1.0
pair_modify     tail yes mix arithmetic
dielectric      1.0
box tilt        large

The 'box' command has been removed and will be ignored

read_data       ./dat/data.333-EXP-1-vasp
Reading data file ...
  triclinic box = (0 0 0) to (14.748733 13.43183 16.609572) with tilt (-6.197201 -1.004749 -1.860559)
  1 by 1 by 1 MPI processor grid
  reading atoms ...
  271 atoms
  scanning bonds ...
  4 = max bonds/atom
  scanning angles ...
  6 = max angles/atom
  scanning dihedrals ...
  24 = max dihedrals/atom
  triclinic box = (0 0 0) to (14.748733 13.43183 16.609572) with tilt (-6.197201 -1.004749 -1.860559)
  1 by 1 by 1 MPI processor grid
  reading bonds ...
  291 bonds
  reading angles ...
  551 angles
  reading dihedrals ...
  687 dihedrals
Finding 1-2 1-3 1-4 neighbors ...
  special bond factors lj:    0        0        1       
  special bond factors coul:  0        0        1       
     4 = max # of 1-2 neighbors
     8 = max # of 1-3 neighbors
    12 = max # of special neighbors
  special bonds CPU = 0.000 seconds
  read_data CPU = 0.006 seconds

#### Atom Groupings ####
group           fram     id   1:271
271 atoms in group fram
#### END Atom Groupings ####

compute am all property/atom mass
dump        atom_pos all extxyz 100 ./output/333-EXP-1-vasp.lammpstrj
dump_modify atom_pos element Si H C O mass yes
thermo          1000
thermo_style    custom step temp pe ke etotal press vol density

variable up equal 2e-2
variable cfac equal 1.0e-4
variable cunits string GPa

# Define minimization parameters
variable etol equal 0.0
variable ftol equal 1.0e-10
variable maxiter equal 100000
variable maxeval equal 100000
variable dmax equal 1.0e-2

variable temp equal 300.0
variable thermal_damp index 100.0
variable pressure_damp index 500.0

fix relax all box/relax aniso 0.0 vmax 0.001
unfix relax
minimize ${etol} ${ftol} ${maxiter} ${maxeval}
minimize 0 ${ftol} ${maxiter} ${maxeval}
minimize 0 1e-10 ${maxiter} ${maxeval}
minimize 0 1e-10 100000 ${maxeval}
minimize 0 1e-10 100000 100000
Generated 6 of 6 mixed pair_coeff terms from arithmetic mixing rule
Neighbor list info ...
  update: every = 1 steps, delay = 0 steps, check = yes
  max neighbors/atom: 2000, page size: 100000
  master list distance cutoff = 7
  ghost atom cutoff = 7
  binsize = 3.5, bins = 7 5 5
  1 neighbor lists, perpetual/occasional/extra = 1 0 0
  (1) pair lj/cut, perpetual
      attributes: half, newton on
      pair build: half/bin/newton/tri
      stencil: half/bin/3d/tri
      bin: standard
WARNING: Inconsistent image flags
For more information see https://docs.lammps.org/err0027 (src/domain.cpp:1052)
Per MPI rank memory allocation (min/avg/max) = 17.48 | 17.48 | 17.48 Mbytes
   Step          Temp          PotEng         KinEng         TotEng         Press          Volume        Density    
         0   0              991.8972       0              991.8972       74986.132      3290.3973      1.5329521    
        76   0             -51.603304      0             -51.603304      1543.6864      3290.3973      1.5329521    
Loop time of 0.0291686 on 1 procs for 76 steps with 271 atoms

101.8% CPU use with 1 MPI tasks x 1 OpenMP threads

Minimization stats:
  Stopping criterion = linesearch alpha is zero
  Energy initial, next-to-last, final = 
      991.897204471411  -51.6033044500061  -51.6033044500061
  Force two-norm initial, final = 802.70186 20.343616
  Force max component initial, final = 96.110546 3.9627581
  Final line search alpha, max atom move = 2.7366789e-11 1.0844796e-10
  Iterations, force evaluations = 76 203

MPI task timing breakdown:
Section |  min time  |  avg time  |  max time  |%varavg| %total
---------------------------------------------------------------
Pair    | 0.01885    | 0.01885    | 0.01885    |   0.0 | 64.62
Bond    | 0.0055339  | 0.0055339  | 0.0055339  |   0.0 | 18.97
Neigh   | 0.0029527  | 0.0029527  | 0.0029527  |   0.0 | 10.12
Comm    | 0.00083295 | 0.00083295 | 0.00083295 |   0.0 |  2.86
Output  | 0          | 0          | 0          |   0.0 |  0.00
Modify  | 0          | 0          | 0          |   0.0 |  0.00
Other   |            | 0.0009994  |            |       |  3.43

Nlocal:            271 ave         271 max         271 min
Histogram: 1 0 0 0 0 0 0 0 0 0
Nghost:           1801 ave        1801 max        1801 min
Histogram: 1 0 0 0 0 0 0 0 0 0
Neighs:          15042 ave       15042 max       15042 min
Histogram: 1 0 0 0 0 0 0 0 0 0

Total # of neighbors = 15042
Ave neighs/atom = 55.505535
Ave special neighs/atom = 6.2140221
Neighbor list builds = 2
Dangerous builds = 0

# Generating the full routine as described in the paper for UFF
# fix nvt_relax   all nvt temp 300 300 ${thermal_damp}
# run 100000      # 100 picoseconds
# unfix           nvt_relax
#
# fix npt_relax   all npt temp 300 300 ${thermal_damp} iso 0 0 ${pressure_damp}
# run 100000      # 100 picoseconds
# unfix           npt_relax
#
# fix nvt_heat    all nvt temp 300 1000 ${thermal_damp}
# run 100000      # 100 picoseconds
# unfix           nvt_heat
#
# fix npt_heat    all npt temp 1000 1000 ${thermal_damp} iso 0 0 ${pressure_damp}
# run 100000      # 100 picoseconds
# unfix           npt_heat
#
# fix cooling_npt all npt temp 1000 300 ${thermal_damp} iso 0 0 ${pressure_damp}
# run 700000      # 700 picoseconds
# unfix           cooling_npt
#
# fix npt_final   all npt temp 300 300 ${thermal_damp} iso 0 0 100
# run 100000      # 100 picoseconds
# unfix           npt_final

# density computation
# variable rho equal density
# fix integrate  all npt temp ${temp} ${temp} ${thermal_damp} iso 0 0 ${pressure_damp}
# fix rho50k all ave/time 10 5000 50000 v_rho mode scalar ave one
# run 50000
# unfix integrate
# unfix rho50k

# Compute initial state
fix 3 all box/relax  aniso 0.0
minimize ${etol} ${ftol} ${maxiter} ${maxeval}
minimize 0 ${ftol} ${maxiter} ${maxeval}
minimize 0 1e-10 ${maxiter} ${maxeval}
minimize 0 1e-10 100000 ${maxeval}
minimize 0 1e-10 100000 100000
Generated 6 of 6 mixed pair_coeff terms from arithmetic mixing rule
WARNING: Energy due to 3 extra global DOFs will be included in minimizer energies
 (src/min.cpp:222)
WARNING: Inconsistent image flags
For more information see https://docs.lammps.org/err0027 (src/domain.cpp:1052)
Per MPI rank memory allocation (min/avg/max) = 18.53 | 18.53 | 18.53 Mbytes
   Step          Temp          PotEng         KinEng         TotEng         Press          Volume        Density    
        76   0             -51.603304      0             -51.603304      1543.6864      3290.3973      1.5329521    
        85   0             -51.713067      0             -51.713067      1000.203       3291.9746      1.5322176    
Loop time of 0.0104236 on 1 procs for 9 steps with 271 atoms

101.9% CPU use with 1 MPI tasks x 1 OpenMP threads

Minimization stats:
  Stopping criterion = linesearch alpha is zero
  Energy initial, next-to-last, final = 
     -51.6033044500062    -51.71306689448    -51.71306689448
  Force two-norm initial, final = 185.31026 136.47719
  Force max component initial, final = 148.51268 107.45074
  Final line search alpha, max atom move = 4.437728e-13 4.7683716e-11
  Iterations, force evaluations = 9 70

MPI task timing breakdown:
Section |  min time  |  avg time  |  max time  |%varavg| %total
---------------------------------------------------------------
Pair    | 0.0064507  | 0.0064507  | 0.0064507  |   0.0 | 61.89
Bond    | 0.0022936  | 0.0022936  | 0.0022936  |   0.0 | 22.00
Neigh   | 0          | 0          | 0          |   0.0 |  0.00
Comm    | 0.00024751 | 0.00024751 | 0.00024751 |   0.0 |  2.37
Output  | 0          | 0          | 0          |   0.0 |  0.00
Modify  | 0          | 0          | 0          |   0.0 |  0.00
Other   |            | 0.001432   |            |       | 13.74

Nlocal:            271 ave         271 max         271 min
Histogram: 1 0 0 0 0 0 0 0 0 0
Nghost:           1797 ave        1797 max        1797 min
Histogram: 1 0 0 0 0 0 0 0 0 0
Neighs:          15054 ave       15054 max       15054 min
Histogram: 1 0 0 0 0 0 0 0 0 0

Total # of neighbors = 15054
Ave neighs/atom = 55.549815
Ave special neighs/atom = 6.2140221
Neighbor list builds = 0
Dangerous builds = 0

variable tmp equal pxx
variable pxx0 equal ${tmp}
variable pxx0 equal 2238.8306528887
variable tmp equal pyy
variable pyy0 equal ${tmp}
variable pyy0 equal 1520.91279623395
variable tmp equal pzz
variable pzz0 equal ${tmp}
variable pzz0 equal -759.134370115047
variable tmp equal pyz
variable pyz0 equal ${tmp}
variable pyz0 equal -1196.83615645889
variable tmp equal pxz
variable pxz0 equal ${tmp}
variable pxz0 equal -3752.0205844971
variable tmp equal pxy
variable pxy0 equal ${tmp}
variable pxy0 equal -1576.62438891677

variable tmp equal lx
variable lx0 equal ${tmp}
variable lx0 equal 14.7536307829117
variable tmp equal ly
variable ly0 equal ${tmp}
variable ly0 equal 13.4349324262194
variable tmp equal lz
variable lz0 equal ${tmp}
variable lz0 equal 16.608181223746

# These formulas define the derivatives w.r.t. strain components
# Constants uses $, variables use v_
variable d1 equal -(v_pxx1-${pxx0})/(v_delta/v_len0)*${cfac}
variable d1 equal -(v_pxx1-2238.8306528887)/(v_delta/v_len0)*${cfac}
variable d1 equal -(v_pxx1-2238.8306528887)/(v_delta/v_len0)*0.0001
variable d2 equal -(v_pyy1-${pyy0})/(v_delta/v_len0)*${cfac}
variable d2 equal -(v_pyy1-1520.91279623395)/(v_delta/v_len0)*${cfac}
variable d2 equal -(v_pyy1-1520.91279623395)/(v_delta/v_len0)*0.0001
variable d3 equal -(v_pzz1-${pzz0})/(v_delta/v_len0)*${cfac}
variable d3 equal -(v_pzz1--759.134370115047)/(v_delta/v_len0)*${cfac}
variable d3 equal -(v_pzz1--759.134370115047)/(v_delta/v_len0)*0.0001
variable d4 equal -(v_pyz1-${pyz0})/(v_delta/v_len0)*${cfac}
variable d4 equal -(v_pyz1--1196.83615645889)/(v_delta/v_len0)*${cfac}
variable d4 equal -(v_pyz1--1196.83615645889)/(v_delta/v_len0)*0.0001
variable d5 equal -(v_pxz1-${pxz0})/(v_delta/v_len0)*${cfac}
variable d5 equal -(v_pxz1--3752.0205844971)/(v_delta/v_len0)*${cfac}
variable d5 equal -(v_pxz1--3752.0205844971)/(v_delta/v_len0)*0.0001
variable d6 equal -(v_pxy1-${pxy0})/(v_delta/v_len0)*${cfac}
variable d6 equal -(v_pxy1--1576.62438891677)/(v_delta/v_len0)*${cfac}
variable d6 equal -(v_pxy1--1576.62438891677)/(v_delta/v_len0)*0.0001

# displace_atoms all random ${atomjiggle} ${atomjiggle} ${atomjiggle} 87287 units box

# Write restart
unfix 3
write_restart restart_333-EXP-1-vasp.equil
System init for write_restart ...
Generated 6 of 6 mixed pair_coeff terms from arithmetic mixing rule

# uxx Perturbation

variable dir equal 1
include ./input/displace_333-EXP-1-vasp.mod
if "${dir} == 1" then    "variable len0 equal ${lx0}"
variable len0 equal ${lx0}
variable len0 equal 14.7536307829117
if "${dir} == 2" then    "variable len0 equal ${ly0}"
if "${dir} == 3" then    "variable len0 equal ${lz0}"
if "${dir} == 4" then    "variable len0 equal ${lz0}"
if "${dir} == 5" then    "variable len0 equal ${lz0}"
if "${dir} == 6" then    "variable len0 equal ${ly0}"

# Reset box and simulation parameters

clear
OMP_NUM_THREADS environment is not set. Defaulting to 1 thread.
  using 1 OpenMP thread(s) per MPI task
box tilt large

The 'box' command has been removed and will be ignored

read_restart restart_333-EXP-1-vasp.equil
Reading restart file ...
  restart file = 10 Sep 2025, LAMMPS = 10 Sep 2025
  restoring atom style full from restart
  triclinic box = (-0.0024488915 -0.0015512131 0.00069538813) to (14.751182 13.433381 16.608877) with tilt (-6.1986324 -1.0046649 -1.8604032)
  1 by 1 by 1 MPI processor grid
  restoring pair style lj/cut from restart
  restoring bond style harmonic from restart
  restoring angle style hybrid from restart
  restoring dihedral style harmonic from restart
  271 atoms
  291 bonds
  551 angles
  687 dihedrals
Finding 1-2 1-3 1-4 neighbors ...
  special bond factors lj:    0        0        1       
  special bond factors coul:  0        0        1       
     4 = max # of 1-2 neighbors
     8 = max # of 1-3 neighbors
    12 = max # of special neighbors
  special bonds CPU = 0.000 seconds
  read_restart CPU = 0.001 seconds
include ./input/angles_333-EXP-1-vasp.mod
angle_style hybrid fourier cosine/periodic
angle_coeff 1 fourier 58.020602        0.343737        0.374972        0.281246
angle_coeff 2 fourier 83.380072        0.343737        0.374972        0.281246
angle_coeff 3 fourier 157.882480        0.343737        0.374972        0.281246
angle_coeff 4 fourier 221.735285        0.343737        0.374972        0.281246
angle_coeff 5 fourier 32.417871        0.343737        0.374972        0.281246
angle_coeff 6 fourier 114.246973        0.343737        0.374972        0.281246
angle_coeff 7 fourier 90.420412        0.343737        0.374972        0.281246
angle_coeff 8 fourier 75.498766        0.343737        0.374972        0.281246
angle_coeff 9 cosine/periodic 88.853997              -1               3

# Negative deformation

variable delta equal -${up}*${len0}
variable delta equal -0.02*${len0}
variable delta equal -0.02*14.7536307829117
variable deltaxy equal -${up}*xy
variable deltaxy equal -0.02*xy
variable deltaxz equal -${up}*xz
variable deltaxz equal -0.02*xz
variable deltayz equal -${up}*yz
variable deltayz equal -0.02*yz
if "${dir} == 1" then    "change_box all x delta 0 ${delta} xy delta ${deltaxy} xz delta ${deltaxz} remap units box"
change_box all x delta 0 ${delta} xy delta ${deltaxy} xz delta ${deltaxz} remap units box
change_box all x delta 0 -0.295072615658234 xy delta ${deltaxy} xz delta ${deltaxz} remap units box
change_box all x delta 0 -0.295072615658234 xy delta 0.123972648055699 xz delta ${deltaxz} remap units box
change_box all x delta 0 -0.295072615658234 xy delta 0.123972648055699 xz delta 0.0200932973786171 remap units box
Changing box ...
  triclinic box = (-0.0024488915 -0.0015512131 0.00069538813) to (14.456109 13.433381 16.608877) with tilt (-6.1986324 -1.0046649 -1.8604032)
  triclinic box = (-0.0024488915 -0.0015512131 0.00069538813) to (14.456109 13.433381 16.608877) with tilt (-6.0746598 -1.0046649 -1.8604032)
  triclinic box = (-0.0024488915 -0.0015512131 0.00069538813) to (14.456109 13.433381 16.608877) with tilt (-6.0746598 -0.98457157 -1.8604032)
if "${dir} == 2" then    "change_box all y delta 0 ${delta} yz delta ${deltayz} remap units box"
if "${dir} == 3" then    "change_box all z delta 0 ${delta} remap units box"
if "${dir} == 4" then    "change_box all yz delta ${delta} remap units box"
if "${dir} == 5" then    "change_box all xz delta ${delta} remap units box"
if "${dir} == 6" then    "change_box all xy delta ${delta} remap units box"

# Relax atoms positions

minimize ${etol} ${ftol} ${maxiter} ${maxeval}
minimize 0 ${ftol} ${maxiter} ${maxeval}
minimize 0 1e-10 ${maxiter} ${maxeval}
minimize 0 1e-10 100000 ${maxeval}
minimize 0 1e-10 100000 100000
Generated 6 of 6 mixed pair_coeff terms from arithmetic mixing rule
Neighbor list info ...
  update: every = 1 steps, delay = 0 steps, check = yes
  max neighbors/atom: 2000, page size: 100000
  master list distance cutoff = 7
  ghost atom cutoff = 7
  binsize = 3.5, bins = 7 5 5
  1 neighbor lists, perpetual/occasional/extra = 1 0 0
  (1) pair lj/cut, perpetual
      attributes: half, newton on
      pair build: half/bin/newton/tri
      stencil: half/bin/3d/tri
      bin: standard
WARNING: Inconsistent image flags
For more information see https://docs.lammps.org/err0027 (src/domain.cpp:1052)
Per MPI rank memory allocation (min/avg/max) = 17.48 | 17.48 | 17.48 Mbytes
   Step          Temp          E_pair         E_mol          TotEng         Press     
        85   0             -334.3127       307.89639     -26.416312      24089.046    
       110   0             -339.63233      290.54413     -49.088201      7214.5325    
Loop time of 0.0137876 on 1 procs for 25 steps with 271 atoms

101.9% CPU use with 1 MPI tasks x 1 OpenMP threads

Minimization stats:
  Stopping criterion = linesearch alpha is zero
  Energy initial, next-to-last, final = 
     -26.4163121489289  -49.0882012439837  -49.0882012439837
  Force two-norm initial, final = 157.40636 11.782367
  Force max component initial, final = 20.854937 1.5217171
  Final line search alpha, max atom move = 5.761894e-11 8.7679729e-11
  Iterations, force evaluations = 25 104

MPI task timing breakdown:
Section |  min time  |  avg time  |  max time  |%varavg| %total
---------------------------------------------------------------
Pair    | 0.010047   | 0.010047   | 0.010047   |   0.0 | 72.87
Bond    | 0.0030433  | 0.0030433  | 0.0030433  |   0.0 | 22.07
Neigh   | 0          | 0          | 0          |   0.0 |  0.00
Comm    | 0.00041884 | 0.00041884 | 0.00041884 |   0.0 |  3.04
Output  | 0          | 0          | 0          |   0.0 |  0.00
Modify  | 0          | 0          | 0          |   0.0 |  0.00
Other   |            | 0.0002789  |            |       |  2.02

Nlocal:            271 ave         271 max         271 min
Histogram: 1 0 0 0 0 0 0 0 0 0
Nghost:           1827 ave        1827 max        1827 min
Histogram: 1 0 0 0 0 0 0 0 0 0
Neighs:          15355 ave       15355 max       15355 min
Histogram: 1 0 0 0 0 0 0 0 0 0

Total # of neighbors = 15355
Ave neighs/atom = 56.660517
Ave special neighs/atom = 6.2140221
Neighbor list builds = 0
Dangerous builds = 0

# Obtain new stress tensor

variable tmp equal pxx
variable pxx1 equal ${tmp}
variable pxx1 equal 13744.9885519052
variable tmp equal pyy
variable pyy1 equal ${tmp}
variable pyy1 equal 5506.68828814041
variable tmp equal pzz
variable pzz1 equal ${tmp}
variable pzz1 equal 2391.92080019508
variable tmp equal pxy
variable pxy1 equal ${tmp}
variable pxy1 equal -1877.08904716478
variable tmp equal pxz
variable pxz1 equal ${tmp}
variable pxz1 equal -4228.83240642569
variable tmp equal pyz
variable pyz1 equal ${tmp}
variable pyz1 equal -340.579225059666

# Compute elastic constant from pressure tensor

variable C1neg equal ${d1}
variable C1neg equal 57.5307894950825
variable C2neg equal ${d2}
variable C2neg equal 19.9288774595323
variable C3neg equal ${d3}
variable C3neg equal 15.7552758515506
variable C4neg equal ${d4}
variable C4neg equal 4.28128465699612
variable C5neg equal ${d5}
variable C5neg equal -2.38405910964295
variable C6neg equal ${d6}
variable C6neg equal -1.50232329124005

# Reset box and simulation parameters

clear
OMP_NUM_THREADS environment is not set. Defaulting to 1 thread.
  using 1 OpenMP thread(s) per MPI task
box tilt large

The 'box' command has been removed and will be ignored

read_restart restart_333-EXP-1-vasp.equil
Reading restart file ...
  restart file = 10 Sep 2025, LAMMPS = 10 Sep 2025
  restoring atom style full from restart
  triclinic box = (-0.0024488915 -0.0015512131 0.00069538813) to (14.751182 13.433381 16.608877) with tilt (-6.1986324 -1.0046649 -1.8604032)
  1 by 1 by 1 MPI processor grid
  restoring pair style lj/cut from restart
  restoring bond style harmonic from restart
  restoring angle style hybrid from restart
  restoring dihedral style harmonic from restart
  271 atoms
  291 bonds
  551 angles
  687 dihedrals
Finding 1-2 1-3 1-4 neighbors ...
  special bond factors lj:    0        0        1       
  special bond factors coul:  0        0        1       
     4 = max # of 1-2 neighbors
     8 = max # of 1-3 neighbors
    12 = max # of special neighbors
  special bonds CPU = 0.000 seconds
  read_restart CPU = 0.001 seconds
include ./input/angles_333-EXP-1-vasp.mod
angle_style hybrid fourier cosine/periodic
angle_coeff 1 fourier 58.020602        0.343737        0.374972        0.281246
angle_coeff 2 fourier 83.380072        0.343737        0.374972        0.281246
angle_coeff 3 fourier 157.882480        0.343737        0.374972        0.281246
angle_coeff 4 fourier 221.735285        0.343737        0.374972        0.281246
angle_coeff 5 fourier 32.417871        0.343737        0.374972        0.281246
angle_coeff 6 fourier 114.246973        0.343737        0.374972        0.281246
angle_coeff 7 fourier 90.420412        0.343737        0.374972        0.281246
angle_coeff 8 fourier 75.498766        0.343737        0.374972        0.281246
angle_coeff 9 cosine/periodic 88.853997              -1               3

# Positive deformation

variable delta equal ${up}*${len0}
variable delta equal 0.02*${len0}
variable delta equal 0.02*14.7536307829117
variable deltaxy equal ${up}*xy
variable deltaxy equal 0.02*xy
variable deltaxz equal ${up}*xz
variable deltaxz equal 0.02*xz
variable deltayz equal ${up}*yz
variable deltayz equal 0.02*yz
if "${dir} == 1" then    "change_box all x delta 0 ${delta} xy delta ${deltaxy} xz delta ${deltaxz} remap units box"
change_box all x delta 0 ${delta} xy delta ${deltaxy} xz delta ${deltaxz} remap units box
change_box all x delta 0 0.295072615658234 xy delta ${deltaxy} xz delta ${deltaxz} remap units box
change_box all x delta 0 0.295072615658234 xy delta -0.123972648055699 xz delta ${deltaxz} remap units box
change_box all x delta 0 0.295072615658234 xy delta -0.123972648055699 xz delta -0.0200932973786171 remap units box
Changing box ...
  triclinic box = (-0.0024488915 -0.0015512131 0.00069538813) to (15.046255 13.433381 16.608877) with tilt (-6.1986324 -1.0046649 -1.8604032)
  triclinic box = (-0.0024488915 -0.0015512131 0.00069538813) to (15.046255 13.433381 16.608877) with tilt (-6.3226051 -1.0046649 -1.8604032)
  triclinic box = (-0.0024488915 -0.0015512131 0.00069538813) to (15.046255 13.433381 16.608877) with tilt (-6.3226051 -1.0247582 -1.8604032)
if "${dir} == 2" then    "change_box all y delta 0 ${delta} yz delta ${deltayz} remap units box"
if "${dir} == 3" then    "change_box all z delta 0 ${delta} remap units box"
if "${dir} == 4" then    "change_box all yz delta ${delta} remap units box"
if "${dir} == 5" then    "change_box all xz delta ${delta} remap units box"
if "${dir} == 6" then    "change_box all xy delta ${delta} remap units box"

# Relax atoms positions

minimize ${etol} ${ftol} ${maxiter} ${maxeval}
minimize 0 ${ftol} ${maxiter} ${maxeval}
minimize 0 1e-10 ${maxiter} ${maxeval}
minimize 0 1e-10 100000 ${maxeval}
minimize 0 1e-10 100000 100000
Generated 6 of 6 mixed pair_coeff terms from arithmetic mixing rule
Neighbor list info ...
  update: every = 1 steps, delay = 0 steps, check = yes
  max neighbors/atom: 2000, page size: 100000
  master list distance cutoff = 7
  ghost atom cutoff = 7
  binsize = 3.5, bins = 7 5 5
  1 neighbor lists, perpetual/occasional/extra = 1 0 0
  (1) pair lj/cut, perpetual
      attributes: half, newton on
      pair build: half/bin/newton/tri
      stencil: half/bin/3d/tri
      bin: standard
WARNING: Inconsistent image flags
For more information see https://docs.lammps.org/err0027 (src/domain.cpp:1052)
Per MPI rank memory allocation (min/avg/max) = 17.48 | 17.48 | 17.48 Mbytes
   Step          Temp          E_pair         E_mol          TotEng         Press     
        85   0             -353.76457      323.21192     -30.552647     -21354.411    
       161   0             -350.06709      273.83632     -76.230771      297.66702    
Loop time of 0.0283545 on 1 procs for 76 steps with 271 atoms

101.9% CPU use with 1 MPI tasks x 1 OpenMP threads

Minimization stats:
  Stopping criterion = linesearch alpha is zero
  Energy initial, next-to-last, final = 
     -30.5526474788825  -76.2307709868087  -76.2307709868087
  Force two-norm initial, final = 160.6084 14.874881
  Force max component initial, final = 21.745082 3.5195765
  Final line search alpha, max atom move = 2.9791347e-11 1.0485292e-10
  Iterations, force evaluations = 76 207

MPI task timing breakdown:
Section |  min time  |  avg time  |  max time  |%varavg| %total
---------------------------------------------------------------
Pair    | 0.018449   | 0.018449   | 0.018449   |   0.0 | 65.07
Bond    | 0.0056881  | 0.0056881  | 0.0056881  |   0.0 | 20.06
Neigh   | 0.0027304  | 0.0027304  | 0.0027304  |   0.0 |  9.63
Comm    | 0.000824   | 0.000824   | 0.000824   |   0.0 |  2.91
Output  | 0          | 0          | 0          |   0.0 |  0.00
Modify  | 0          | 0          | 0          |   0.0 |  0.00
Other   |            | 0.0006628  |            |       |  2.34

Nlocal:            271 ave         271 max         271 min
Histogram: 1 0 0 0 0 0 0 0 0 0
Nghost:           1777 ave        1777 max        1777 min
Histogram: 1 0 0 0 0 0 0 0 0 0
Neighs:          14741 ave       14741 max       14741 min
Histogram: 1 0 0 0 0 0 0 0 0 0

Total # of neighbors = 14741
Ave neighs/atom = 54.394834
Ave special neighs/atom = 6.2140221
Neighbor list builds = 2
Dangerous builds = 0

# Obtain new stress tensor

variable tmp equal pe
variable e1 equal ${tmp}
variable e1 equal -76.2307709868087
variable tmp equal press
variable p1 equal ${tmp}
variable p1 equal 297.667015163076
variable tmp equal pxx
variable pxx1 equal ${tmp}
variable pxx1 equal -142.933394296766
variable tmp equal pyy
variable pyy1 equal ${tmp}
variable pyy1 equal 1565.41674807249
variable tmp equal pzz
variable pzz1 equal ${tmp}
variable pzz1 equal -529.482308286499
variable tmp equal pxy
variable pxy1 equal ${tmp}
variable pxy1 equal -1341.84294511823
variable tmp equal pxz
variable pxz1 equal ${tmp}
variable pxz1 equal -3923.11465579216
variable tmp equal pyz
variable pyz1 equal ${tmp}
variable pyz1 equal -316.662440161131

# Compute elastic constant from pressure tensor

variable C1pos equal ${d1}
variable C1pos equal 11.9088202359273
variable C2pos equal ${d2}
variable C2pos equal -0.2225197591927
variable C3pos equal ${d3}
variable C3pos equal -1.14826030914274
variable C4pos equal ${d4}
variable C4pos equal -4.40086858148879
variable C5pos equal ${d5}
variable C5pos equal 0.8554703564753
variable C6pos equal ${d6}
variable C6pos equal -1.1739072189927

# Combine positive and negative

variable C1${dir} equal 0.5*(${C1neg}+${C1pos})
variable C11 equal 0.5*(${C1neg}+${C1pos})
variable C11 equal 0.5*(57.5307894950825+${C1pos})
variable C11 equal 0.5*(57.5307894950825+11.9088202359273)
variable C2${dir} equal 0.5*(${C2neg}+${C2pos})
variable C21 equal 0.5*(${C2neg}+${C2pos})
variable C21 equal 0.5*(19.9288774595323+${C2pos})
variable C21 equal 0.5*(19.9288774595323+-0.2225197591927)
variable C3${dir} equal 0.5*(${C3neg}+${C3pos})
variable C31 equal 0.5*(${C3neg}+${C3pos})
variable C31 equal 0.5*(15.7552758515506+${C3pos})
variable C31 equal 0.5*(15.7552758515506+-1.14826030914274)
variable C4${dir} equal 0.5*(${C4neg}+${C4pos})
variable C41 equal 0.5*(${C4neg}+${C4pos})
variable C41 equal 0.5*(4.28128465699612+${C4pos})
variable C41 equal 0.5*(4.28128465699612+-4.40086858148879)
variable C5${dir} equal 0.5*(${C5neg}+${C5pos})
variable C51 equal 0.5*(${C5neg}+${C5pos})
variable C51 equal 0.5*(-2.38405910964295+${C5pos})
variable C51 equal 0.5*(-2.38405910964295+0.8554703564753)
variable C6${dir} equal 0.5*(${C6neg}+${C6pos})
variable C61 equal 0.5*(${C6neg}+${C6pos})
variable C61 equal 0.5*(-1.50232329124005+${C6pos})
variable C61 equal 0.5*(-1.50232329124005+-1.1739072189927)

# Delete dir to make sure it is not reused

variable dir delete

# uyy Perturbation

variable dir equal 2
include ./input/displace_333-EXP-1-vasp.mod
if "${dir} == 1" then    "variable len0 equal ${lx0}"
if "${dir} == 2" then    "variable len0 equal ${ly0}"
variable len0 equal ${ly0}
variable len0 equal 13.4349324262194
if "${dir} == 3" then    "variable len0 equal ${lz0}"
if "${dir} == 4" then    "variable len0 equal ${lz0}"
if "${dir} == 5" then    "variable len0 equal ${lz0}"
if "${dir} == 6" then    "variable len0 equal ${ly0}"

# Reset box and simulation parameters

clear
OMP_NUM_THREADS environment is not set. Defaulting to 1 thread.
  using 1 OpenMP thread(s) per MPI task
box tilt large

The 'box' command has been removed and will be ignored

read_restart restart_333-EXP-1-vasp.equil
Reading restart file ...
  restart file = 10 Sep 2025, LAMMPS = 10 Sep 2025
  restoring atom style full from restart
  triclinic box = (-0.0024488915 -0.0015512131 0.00069538813) to (14.751182 13.433381 16.608877) with tilt (-6.1986324 -1.0046649 -1.8604032)
  1 by 1 by 1 MPI processor grid
  restoring pair style lj/cut from restart
  restoring bond style harmonic from restart
  restoring angle style hybrid from restart
  restoring dihedral style harmonic from restart
  271 atoms
  291 bonds
  551 angles
  687 dihedrals
Finding 1-2 1-3 1-4 neighbors ...
  special bond factors lj:    0        0        1       
  special bond factors coul:  0        0        1       
     4 = max # of 1-2 neighbors
     8 = max # of 1-3 neighbors
    12 = max # of special neighbors
  special bonds CPU = 0.000 seconds
  read_restart CPU = 0.001 seconds
include ./input/angles_333-EXP-1-vasp.mod
angle_style hybrid fourier cosine/periodic
angle_coeff 1 fourier 58.020602        0.343737        0.374972        0.281246
angle_coeff 2 fourier 83.380072        0.343737        0.374972        0.281246
angle_coeff 3 fourier 157.882480        0.343737        0.374972        0.281246
angle_coeff 4 fourier 221.735285        0.343737        0.374972        0.281246
angle_coeff 5 fourier 32.417871        0.343737        0.374972        0.281246
angle_coeff 6 fourier 114.246973        0.343737        0.374972        0.281246
angle_coeff 7 fourier 90.420412        0.343737        0.374972        0.281246
angle_coeff 8 fourier 75.498766        0.343737        0.374972        0.281246
angle_coeff 9 cosine/periodic 88.853997              -1               3

# Negative deformation

variable delta equal -${up}*${len0}
variable delta equal -0.02*${len0}
variable delta equal -0.02*13.4349324262194
variable deltaxy equal -${up}*xy
variable deltaxy equal -0.02*xy
variable deltaxz equal -${up}*xz
variable deltaxz equal -0.02*xz
variable deltayz equal -${up}*yz
variable deltayz equal -0.02*yz
if "${dir} == 1" then    "change_box all x delta 0 ${delta} xy delta ${deltaxy} xz delta ${deltaxz} remap units box"
if "${dir} == 2" then    "change_box all y delta 0 ${delta} yz delta ${deltayz} remap units box"
change_box all y delta 0 ${delta} yz delta ${deltayz} remap units box
change_box all y delta 0 -0.268698648524388 yz delta ${deltayz} remap units box
change_box all y delta 0 -0.268698648524388 yz delta 0.0372080641806685 remap units box
Changing box ...
  triclinic box = (-0.0024488915 -0.0015512131 0.00069538813) to (14.751182 13.164683 16.608877) with tilt (-6.1986324 -1.0046649 -1.8604032)
  triclinic box = (-0.0024488915 -0.0015512131 0.00069538813) to (14.751182 13.164683 16.608877) with tilt (-6.1986324 -1.0046649 -1.8231951)
if "${dir} == 3" then    "change_box all z delta 0 ${delta} remap units box"
if "${dir} == 4" then    "change_box all yz delta ${delta} remap units box"
if "${dir} == 5" then    "change_box all xz delta ${delta} remap units box"
if "${dir} == 6" then    "change_box all xy delta ${delta} remap units box"

# Relax atoms positions

minimize ${etol} ${ftol} ${maxiter} ${maxeval}
minimize 0 ${ftol} ${maxiter} ${maxeval}
minimize 0 1e-10 ${maxiter} ${maxeval}
minimize 0 1e-10 100000 ${maxeval}
minimize 0 1e-10 100000 100000
Generated 6 of 6 mixed pair_coeff terms from arithmetic mixing rule
Neighbor list info ...
  update: every = 1 steps, delay = 0 steps, check = yes
  max neighbors/atom: 2000, page size: 100000
  master list distance cutoff = 7
  ghost atom cutoff = 7
  binsize = 3.5, bins = 7 5 5
  1 neighbor lists, perpetual/occasional/extra = 1 0 0
  (1) pair lj/cut, perpetual
      attributes: half, newton on
      pair build: half/bin/newton/tri
      stencil: half/bin/3d/tri
      bin: standard
WARNING: Inconsistent image flags
For more information see https://docs.lammps.org/err0027 (src/domain.cpp:1052)
Per MPI rank memory allocation (min/avg/max) = 17.48 | 17.48 | 17.48 Mbytes
   Step          Temp          E_pair         E_mol          TotEng         Press     
        85   0             -336.23144      308.72127     -27.510171      24001.393    
       100   0             -340.33192      293.75661     -46.575313      6980.8481    
Loop time of 0.00994445 on 1 procs for 15 steps with 271 atoms

101.9% CPU use with 1 MPI tasks x 1 OpenMP threads

Minimization stats:
  Stopping criterion = linesearch alpha is zero
  Energy initial, next-to-last, final = 
     -27.5101705845921  -46.5753130362845  -46.5753130362845
  Force two-norm initial, final = 150.28516 19.598303
  Force max component initial, final = 21.971615 2.9501684
  Final line search alpha, max atom move = 2.6417041e-11 7.7934719e-11
  Iterations, force evaluations = 15 86

MPI task timing breakdown:
Section |  min time  |  avg time  |  max time  |%varavg| %total
---------------------------------------------------------------
Pair    | 0.0072499  | 0.0072499  | 0.0072499  |   0.0 | 72.90
Bond    | 0.0022133  | 0.0022133  | 0.0022133  |   0.0 | 22.26
Neigh   | 0          | 0          | 0          |   0.0 |  0.00
Comm    | 0.00027708 | 0.00027708 | 0.00027708 |   0.0 |  2.79
Output  | 0          | 0          | 0          |   0.0 |  0.00
Modify  | 0          | 0          | 0          |   0.0 |  0.00
Other   |            | 0.0002042  |            |       |  2.05

Nlocal:            271 ave         271 max         271 min
Histogram: 1 0 0 0 0 0 0 0 0 0
Nghost:           1819 ave        1819 max        1819 min
Histogram: 1 0 0 0 0 0 0 0 0 0
Neighs:          15373 ave       15373 max       15373 min
Histogram: 1 0 0 0 0 0 0 0 0 0

Total # of neighbors = 15373
Ave neighs/atom = 56.726937
Ave special neighs/atom = 6.2140221
Neighbor list builds = 0
Dangerous builds = 0

# Obtain new stress tensor

variable tmp equal pxx
variable pxx1 equal ${tmp}
variable pxx1 equal 5465.68250168654
variable tmp equal pyy
variable pyy1 equal ${tmp}
variable pyy1 equal 11967.4615552831
variable tmp equal pzz
variable pzz1 equal ${tmp}
variable pzz1 equal 3509.40022730788
variable tmp equal pxy
variable pxy1 equal ${tmp}
variable pxy1 equal -2204.40361553225
variable tmp equal pxz
variable pxz1 equal ${tmp}
variable pxz1 equal -4295.25840317557
variable tmp equal pyz
variable pyz1 equal ${tmp}
variable pyz1 equal -907.012370074914

# Compute elastic constant from pressure tensor

variable C1neg equal ${d1}
variable C1neg equal 16.1342592439892
variable C2neg equal ${d2}
variable C2neg equal 52.2327437952457
variable C3neg equal ${d3}
variable C3neg equal 21.3426729871146
variable C4neg equal ${d4}
variable C4neg equal 1.44911893191988
variable C5neg equal ${d5}
variable C5neg equal -2.71618909339235
variable C6neg equal ${d6}
variable C6neg equal -3.1388961330774

# Reset box and simulation parameters

clear
OMP_NUM_THREADS environment is not set. Defaulting to 1 thread.
  using 1 OpenMP thread(s) per MPI task
box tilt large

The 'box' command has been removed and will be ignored

read_restart restart_333-EXP-1-vasp.equil
Reading restart file ...
  restart file = 10 Sep 2025, LAMMPS = 10 Sep 2025
  restoring atom style full from restart
  triclinic box = (-0.0024488915 -0.0015512131 0.00069538813) to (14.751182 13.433381 16.608877) with tilt (-6.1986324 -1.0046649 -1.8604032)
  1 by 1 by 1 MPI processor grid
  restoring pair style lj/cut from restart
  restoring bond style harmonic from restart
  restoring angle style hybrid from restart
  restoring dihedral style harmonic from restart
  271 atoms
  291 bonds
  551 angles
  687 dihedrals
Finding 1-2 1-3 1-4 neighbors ...
  special bond factors lj:    0        0        1       
  special bond factors coul:  0        0        1       
     4 = max # of 1-2 neighbors
     8 = max # of 1-3 neighbors
    12 = max # of special neighbors
  special bonds CPU = 0.000 seconds
  read_restart CPU = 0.001 seconds
include ./input/angles_333-EXP-1-vasp.mod
angle_style hybrid fourier cosine/periodic
angle_coeff 1 fourier 58.020602        0.343737        0.374972        0.281246
angle_coeff 2 fourier 83.380072        0.343737        0.374972        0.281246
angle_coeff 3 fourier 157.882480        0.343737        0.374972        0.281246
angle_coeff 4 fourier 221.735285        0.343737        0.374972        0.281246
angle_coeff 5 fourier 32.417871        0.343737        0.374972        0.281246
angle_coeff 6 fourier 114.246973        0.343737        0.374972        0.281246
angle_coeff 7 fourier 90.420412        0.343737        0.374972        0.281246
angle_coeff 8 fourier 75.498766        0.343737        0.374972        0.281246
angle_coeff 9 cosine/periodic 88.853997              -1               3

# Positive deformation

variable delta equal ${up}*${len0}
variable delta equal 0.02*${len0}
variable delta equal 0.02*13.4349324262194
variable deltaxy equal ${up}*xy
variable deltaxy equal 0.02*xy
variable deltaxz equal ${up}*xz
variable deltaxz equal 0.02*xz
variable deltayz equal ${up}*yz
variable deltayz equal 0.02*yz
if "${dir} == 1" then    "change_box all x delta 0 ${delta} xy delta ${deltaxy} xz delta ${deltaxz} remap units box"
if "${dir} == 2" then    "change_box all y delta 0 ${delta} yz delta ${deltayz} remap units box"
change_box all y delta 0 ${delta} yz delta ${deltayz} remap units box
change_box all y delta 0 0.268698648524388 yz delta ${deltayz} remap units box
change_box all y delta 0 0.268698648524388 yz delta -0.0372080641806685 remap units box
Changing box ...
  triclinic box = (-0.0024488915 -0.0015512131 0.00069538813) to (14.751182 13.70208 16.608877) with tilt (-6.1986324 -1.0046649 -1.8604032)
  triclinic box = (-0.0024488915 -0.0015512131 0.00069538813) to (14.751182 13.70208 16.608877) with tilt (-6.1986324 -1.0046649 -1.8976113)
if "${dir} == 3" then    "change_box all z delta 0 ${delta} remap units box"
if "${dir} == 4" then    "change_box all yz delta ${delta} remap units box"
if "${dir} == 5" then    "change_box all xz delta ${delta} remap units box"
if "${dir} == 6" then    "change_box all xy delta ${delta} remap units box"

# Relax atoms positions

minimize ${etol} ${ftol} ${maxiter} ${maxeval}
minimize 0 ${ftol} ${maxiter} ${maxeval}
minimize 0 1e-10 ${maxiter} ${maxeval}
minimize 0 1e-10 100000 ${maxeval}
minimize 0 1e-10 100000 100000
Generated 6 of 6 mixed pair_coeff terms from arithmetic mixing rule
Neighbor list info ...
  update: every = 1 steps, delay = 0 steps, check = yes
  max neighbors/atom: 2000, page size: 100000
  master list distance cutoff = 7
  ghost atom cutoff = 7
  binsize = 3.5, bins = 7 5 5
  1 neighbor lists, perpetual/occasional/extra = 1 0 0
  (1) pair lj/cut, perpetual
      attributes: half, newton on
      pair build: half/bin/newton/tri
      stencil: half/bin/3d/tri
      bin: standard
WARNING: Inconsistent image flags
For more information see https://docs.lammps.org/err0027 (src/domain.cpp:1052)
Per MPI rank memory allocation (min/avg/max) = 17.48 | 17.48 | 17.48 Mbytes
   Step          Temp          E_pair         E_mol          TotEng         Press     
        85   0             -352.41088      322.50568     -29.905196     -21314.091    
       112   0             -348.25807      292.27634     -55.981734     -1888.1823    
Loop time of 0.0137685 on 1 procs for 27 steps with 271 atoms

101.9% CPU use with 1 MPI tasks x 1 OpenMP threads

Minimization stats:
  Stopping criterion = linesearch alpha is zero
  Energy initial, next-to-last, final = 
     -29.9051956106208  -55.9817341226641  -55.9817341226641
  Force two-norm initial, final = 158.70047 11.000844
  Force max component initial, final = 22.184842 1.7118388
  Final line search alpha, max atom move = 6.3817461e-11 1.0924521e-10
  Iterations, force evaluations = 27 108

MPI task timing breakdown:
Section |  min time  |  avg time  |  max time  |%varavg| %total
---------------------------------------------------------------
Pair    | 0.0098834  | 0.0098834  | 0.0098834  |   0.0 | 71.78
Bond    | 0.0031825  | 0.0031825  | 0.0031825  |   0.0 | 23.11
Neigh   | 0          | 0          | 0          |   0.0 |  0.00
Comm    | 0.00039722 | 0.00039722 | 0.00039722 |   0.0 |  2.89
Output  | 0          | 0          | 0          |   0.0 |  0.00
Modify  | 0          | 0          | 0          |   0.0 |  0.00
Other   |            | 0.0003053  |            |       |  2.22

Nlocal:            271 ave         271 max         271 min
Histogram: 1 0 0 0 0 0 0 0 0 0
Nghost:           1777 ave        1777 max        1777 min
Histogram: 1 0 0 0 0 0 0 0 0 0
Neighs:          14732 ave       14732 max       14732 min
Histogram: 1 0 0 0 0 0 0 0 0 0

Total # of neighbors = 14732
Ave neighs/atom = 54.361624
Ave special neighs/atom = 6.2140221
Neighbor list builds = 0
Dangerous builds = 0

# Obtain new stress tensor

variable tmp equal pe
variable e1 equal ${tmp}
variable e1 equal -55.9817341226641
variable tmp equal press
variable p1 equal ${tmp}
variable p1 equal -1888.18225464773
variable tmp equal pxx
variable pxx1 equal ${tmp}
variable pxx1 equal 584.610713830439
variable tmp equal pyy
variable pyy1 equal ${tmp}
variable pyy1 equal -3019.84130968857
variable tmp equal pzz
variable pzz1 equal ${tmp}
variable pzz1 equal -3229.31616808508
variable tmp equal pxy
variable pxy1 equal ${tmp}
variable pxy1 equal -1216.91563764789
variable tmp equal pxz
variable pxz1 equal ${tmp}
variable pxz1 equal -3379.01771785847
variable tmp equal pyz
variable pyz1 equal ${tmp}
variable pyz1 equal -1760.1222985832

# Compute elastic constant from pressure tensor

variable C1pos equal ${d1}
variable C1pos equal 8.2710996952913
variable C2pos equal ${d2}
variable C2pos equal 22.7037705296126
variable C3pos equal ${d3}
variable C3pos equal 12.3509089898502
variable C4pos equal ${d4}
variable C4pos equal 2.81643071062155
variable C5pos equal ${d5}
variable C5pos equal -1.86501433319315
variable C6pos equal ${d6}
variable C6pos equal -1.7985437563444

# Combine positive and negative

variable C1${dir} equal 0.5*(${C1neg}+${C1pos})
variable C12 equal 0.5*(${C1neg}+${C1pos})
variable C12 equal 0.5*(16.1342592439892+${C1pos})
variable C12 equal 0.5*(16.1342592439892+8.2710996952913)
variable C2${dir} equal 0.5*(${C2neg}+${C2pos})
variable C22 equal 0.5*(${C2neg}+${C2pos})
variable C22 equal 0.5*(52.2327437952457+${C2pos})
variable C22 equal 0.5*(52.2327437952457+22.7037705296126)
variable C3${dir} equal 0.5*(${C3neg}+${C3pos})
variable C32 equal 0.5*(${C3neg}+${C3pos})
variable C32 equal 0.5*(21.3426729871146+${C3pos})
variable C32 equal 0.5*(21.3426729871146+12.3509089898502)
variable C4${dir} equal 0.5*(${C4neg}+${C4pos})
variable C42 equal 0.5*(${C4neg}+${C4pos})
variable C42 equal 0.5*(1.44911893191988+${C4pos})
variable C42 equal 0.5*(1.44911893191988+2.81643071062155)
variable C5${dir} equal 0.5*(${C5neg}+${C5pos})
variable C52 equal 0.5*(${C5neg}+${C5pos})
variable C52 equal 0.5*(-2.71618909339235+${C5pos})
variable C52 equal 0.5*(-2.71618909339235+-1.86501433319315)
variable C6${dir} equal 0.5*(${C6neg}+${C6pos})
variable C62 equal 0.5*(${C6neg}+${C6pos})
variable C62 equal 0.5*(-3.1388961330774+${C6pos})
variable C62 equal 0.5*(-3.1388961330774+-1.7985437563444)

# Delete dir to make sure it is not reused

variable dir delete

# uzz Perturbation

variable dir equal 3
include ./input/displace_333-EXP-1-vasp.mod
if "${dir} == 1" then    "variable len0 equal ${lx0}"
if "${dir} == 2" then    "variable len0 equal ${ly0}"
if "${dir} == 3" then    "variable len0 equal ${lz0}"
variable len0 equal ${lz0}
variable len0 equal 16.608181223746
if "${dir} == 4" then    "variable len0 equal ${lz0}"
if "${dir} == 5" then    "variable len0 equal ${lz0}"
if "${dir} == 6" then    "variable len0 equal ${ly0}"

# Reset box and simulation parameters

clear
OMP_NUM_THREADS environment is not set. Defaulting to 1 thread.
  using 1 OpenMP thread(s) per MPI task
box tilt large

The 'box' command has been removed and will be ignored

read_restart restart_333-EXP-1-vasp.equil
Reading restart file ...
  restart file = 10 Sep 2025, LAMMPS = 10 Sep 2025
  restoring atom style full from restart
  triclinic box = (-0.0024488915 -0.0015512131 0.00069538813) to (14.751182 13.433381 16.608877) with tilt (-6.1986324 -1.0046649 -1.8604032)
  1 by 1 by 1 MPI processor grid
  restoring pair style lj/cut from restart
  restoring bond style harmonic from restart
  restoring angle style hybrid from restart
  restoring dihedral style harmonic from restart
  271 atoms
  291 bonds
  551 angles
  687 dihedrals
Finding 1-2 1-3 1-4 neighbors ...
  special bond factors lj:    0        0        1       
  special bond factors coul:  0        0        1       
     4 = max # of 1-2 neighbors
     8 = max # of 1-3 neighbors
    12 = max # of special neighbors
  special bonds CPU = 0.000 seconds
  read_restart CPU = 0.001 seconds
include ./input/angles_333-EXP-1-vasp.mod
angle_style hybrid fourier cosine/periodic
angle_coeff 1 fourier 58.020602        0.343737        0.374972        0.281246
angle_coeff 2 fourier 83.380072        0.343737        0.374972        0.281246
angle_coeff 3 fourier 157.882480        0.343737        0.374972        0.281246
angle_coeff 4 fourier 221.735285        0.343737        0.374972        0.281246
angle_coeff 5 fourier 32.417871        0.343737        0.374972        0.281246
angle_coeff 6 fourier 114.246973        0.343737        0.374972        0.281246
angle_coeff 7 fourier 90.420412        0.343737        0.374972        0.281246
angle_coeff 8 fourier 75.498766        0.343737        0.374972        0.281246
angle_coeff 9 cosine/periodic 88.853997              -1               3

# Negative deformation

variable delta equal -${up}*${len0}
variable delta equal -0.02*${len0}
variable delta equal -0.02*16.608181223746
variable deltaxy equal -${up}*xy
variable deltaxy equal -0.02*xy
variable deltaxz equal -${up}*xz
variable deltaxz equal -0.02*xz
variable deltayz equal -${up}*yz
variable deltayz equal -0.02*yz
if "${dir} == 1" then    "change_box all x delta 0 ${delta} xy delta ${deltaxy} xz delta ${deltaxz} remap units box"
if "${dir} == 2" then    "change_box all y delta 0 ${delta} yz delta ${deltayz} remap units box"
if "${dir} == 3" then    "change_box all z delta 0 ${delta} remap units box"
change_box all z delta 0 ${delta} remap units box
change_box all z delta 0 -0.33216362447492 remap units box
Changing box ...
  triclinic box = (-0.0024488915 -0.0015512131 0.00069538813) to (14.751182 13.433381 16.276713) with tilt (-6.1986324 -1.0046649 -1.8604032)
if "${dir} == 4" then    "change_box all yz delta ${delta} remap units box"
if "${dir} == 5" then    "change_box all xz delta ${delta} remap units box"
if "${dir} == 6" then    "change_box all xy delta ${delta} remap units box"

# Relax atoms positions

minimize ${etol} ${ftol} ${maxiter} ${maxeval}
minimize 0 ${ftol} ${maxiter} ${maxeval}
minimize 0 1e-10 ${maxiter} ${maxeval}
minimize 0 1e-10 100000 ${maxeval}
minimize 0 1e-10 100000 100000
Generated 6 of 6 mixed pair_coeff terms from arithmetic mixing rule
Neighbor list info ...
  update: every = 1 steps, delay = 0 steps, check = yes
  max neighbors/atom: 2000, page size: 100000
  master list distance cutoff = 7
  ghost atom cutoff = 7
  binsize = 3.5, bins = 7 5 5
  1 neighbor lists, perpetual/occasional/extra = 1 0 0
  (1) pair lj/cut, perpetual
      attributes: half, newton on
      pair build: half/bin/newton/tri
      stencil: half/bin/3d/tri
      bin: standard
WARNING: Inconsistent image flags
For more information see https://docs.lammps.org/err0027 (src/domain.cpp:1052)
Per MPI rank memory allocation (min/avg/max) = 17.48 | 17.48 | 17.48 Mbytes
   Step          Temp          E_pair         E_mol          TotEng         Press     
        85   0             -334.35008      304.87689     -29.473192      24486.164    
       114   0             -341.34643      289.07365     -52.272787      7138.0814    
Loop time of 0.0153905 on 1 procs for 29 steps with 271 atoms

101.9% CPU use with 1 MPI tasks x 1 OpenMP threads

Minimization stats:
  Stopping criterion = linesearch alpha is zero
  Energy initial, next-to-last, final = 
     -29.4731919619981  -52.2727870123214  -52.2727870123214
  Force two-norm initial, final = 158.39549 11.740563
  Force max component initial, final = 20.648285 2.1661769
  Final line search alpha, max atom move = 7.7471111e-11 1.6781613e-10
  Iterations, force evaluations = 29 111

MPI task timing breakdown:
Section |  min time  |  avg time  |  max time  |%varavg| %total
---------------------------------------------------------------
Pair    | 0.011189   | 0.011189   | 0.011189   |   0.0 | 72.70
Bond    | 0.0034084  | 0.0034084  | 0.0034084  |   0.0 | 22.15
Neigh   | 0          | 0          | 0          |   0.0 |  0.00
Comm    | 0.00047676 | 0.00047676 | 0.00047676 |   0.0 |  3.10
Output  | 0          | 0          | 0          |   0.0 |  0.00
Modify  | 0          | 0          | 0          |   0.0 |  0.00
Other   |            | 0.0003164  |            |       |  2.06

Nlocal:            271 ave         271 max         271 min
Histogram: 1 0 0 0 0 0 0 0 0 0
Nghost:           1813 ave        1813 max        1813 min
Histogram: 1 0 0 0 0 0 0 0 0 0
Neighs:          15366 ave       15366 max       15366 min
Histogram: 1 0 0 0 0 0 0 0 0 0

Total # of neighbors = 15366
Ave neighs/atom = 56.701107
Ave special neighs/atom = 6.2140221
Neighbor list builds = 0
Dangerous builds = 0

# Obtain new stress tensor

variable tmp equal pxx
variable pxx1 equal ${tmp}
variable pxx1 equal 6037.76186755695
variable tmp equal pyy
variable pyy1 equal ${tmp}
variable pyy1 equal 6184.02903283475
variable tmp equal pzz
variable pzz1 equal ${tmp}
variable pzz1 equal 9192.45334439086
variable tmp equal pxy
variable pxy1 equal ${tmp}
variable pxy1 equal -2067.19535054992
variable tmp equal pxz
variable pxz1 equal ${tmp}
variable pxz1 equal -3278.2960896839
variable tmp equal pyz
variable pyz1 equal ${tmp}
variable pyz1 equal 408.339099125237

# Compute elastic constant from pressure tensor

variable C1neg equal ${d1}
variable C1neg equal 18.9946560733413
variable C2neg equal ${d2}
variable C2neg equal 23.315581183004
variable C3neg equal ${d3}
variable C3neg equal 49.7579385725295
variable C4neg equal ${d4}
variable C4neg equal 8.02587627792064
variable C5neg equal ${d5}
variable C5neg equal 2.368622474066
variable C6neg equal ${d6}
variable C6neg equal -2.45285480816575

# Reset box and simulation parameters

clear
OMP_NUM_THREADS environment is not set. Defaulting to 1 thread.
  using 1 OpenMP thread(s) per MPI task
box tilt large

The 'box' command has been removed and will be ignored

read_restart restart_333-EXP-1-vasp.equil
Reading restart file ...
  restart file = 10 Sep 2025, LAMMPS = 10 Sep 2025
  restoring atom style full from restart
  triclinic box = (-0.0024488915 -0.0015512131 0.00069538813) to (14.751182 13.433381 16.608877) with tilt (-6.1986324 -1.0046649 -1.8604032)
  1 by 1 by 1 MPI processor grid
  restoring pair style lj/cut from restart
  restoring bond style harmonic from restart
  restoring angle style hybrid from restart
  restoring dihedral style harmonic from restart
  271 atoms
  291 bonds
  551 angles
  687 dihedrals
Finding 1-2 1-3 1-4 neighbors ...
  special bond factors lj:    0        0        1       
  special bond factors coul:  0        0        1       
     4 = max # of 1-2 neighbors
     8 = max # of 1-3 neighbors
    12 = max # of special neighbors
  special bonds CPU = 0.000 seconds
  read_restart CPU = 0.001 seconds
include ./input/angles_333-EXP-1-vasp.mod
angle_style hybrid fourier cosine/periodic
angle_coeff 1 fourier 58.020602        0.343737        0.374972        0.281246
angle_coeff 2 fourier 83.380072        0.343737        0.374972        0.281246
angle_coeff 3 fourier 157.882480        0.343737        0.374972        0.281246
angle_coeff 4 fourier 221.735285        0.343737        0.374972        0.281246
angle_coeff 5 fourier 32.417871        0.343737        0.374972        0.281246
angle_coeff 6 fourier 114.246973        0.343737        0.374972        0.281246
angle_coeff 7 fourier 90.420412        0.343737        0.374972        0.281246
angle_coeff 8 fourier 75.498766        0.343737        0.374972        0.281246
angle_coeff 9 cosine/periodic 88.853997              -1               3

# Positive deformation

variable delta equal ${up}*${len0}
variable delta equal 0.02*${len0}
variable delta equal 0.02*16.608181223746
variable deltaxy equal ${up}*xy
variable deltaxy equal 0.02*xy
variable deltaxz equal ${up}*xz
variable deltaxz equal 0.02*xz
variable deltayz equal ${up}*yz
variable deltayz equal 0.02*yz
if "${dir} == 1" then    "change_box all x delta 0 ${delta} xy delta ${deltaxy} xz delta ${deltaxz} remap units box"
if "${dir} == 2" then    "change_box all y delta 0 ${delta} yz delta ${deltayz} remap units box"
if "${dir} == 3" then    "change_box all z delta 0 ${delta} remap units box"
change_box all z delta 0 ${delta} remap units box
change_box all z delta 0 0.33216362447492 remap units box
Changing box ...
  triclinic box = (-0.0024488915 -0.0015512131 0.00069538813) to (14.751182 13.433381 16.94104) with tilt (-6.1986324 -1.0046649 -1.8604032)
if "${dir} == 4" then    "change_box all yz delta ${delta} remap units box"
if "${dir} == 5" then    "change_box all xz delta ${delta} remap units box"
if "${dir} == 6" then    "change_box all xy delta ${delta} remap units box"

# Relax atoms positions

minimize ${etol} ${ftol} ${maxiter} ${maxeval}
minimize 0 ${ftol} ${maxiter} ${maxeval}
minimize 0 1e-10 ${maxiter} ${maxeval}
minimize 0 1e-10 100000 ${maxeval}
minimize 0 1e-10 100000 100000
Generated 6 of 6 mixed pair_coeff terms from arithmetic mixing rule
Neighbor list info ...
  update: every = 1 steps, delay = 0 steps, check = yes
  max neighbors/atom: 2000, page size: 100000
  master list distance cutoff = 7
  ghost atom cutoff = 7
  binsize = 3.5, bins = 7 5 5
  1 neighbor lists, perpetual/occasional/extra = 1 0 0
  (1) pair lj/cut, perpetual
      attributes: half, newton on
      pair build: half/bin/newton/tri
      stencil: half/bin/3d/tri
      bin: standard
WARNING: Inconsistent image flags
For more information see https://docs.lammps.org/err0027 (src/domain.cpp:1052)
Per MPI rank memory allocation (min/avg/max) = 17.48 | 17.48 | 17.48 Mbytes
   Step          Temp          E_pair         E_mol          TotEng         Press     
        85   0             -353.46157      325.46374     -27.997833     -21736.617    
       102   0             -351.45356      302.15823     -49.295325     -3103.1027    
Loop time of 0.0122185 on 1 procs for 17 steps with 271 atoms

101.9% CPU use with 1 MPI tasks x 1 OpenMP threads

Minimization stats:
  Stopping criterion = linesearch alpha is zero
  Energy initial, next-to-last, final = 
     -27.9978330238299   -49.295325070619   -49.295325070619
  Force two-norm initial, final = 156.98064 17.226913
  Force max component initial, final = 20.262911 2.8031882
  Final line search alpha, max atom move = 3.0746852e-11 8.6189213e-11
  Iterations, force evaluations = 17 90

MPI task timing breakdown:
Section |  min time  |  avg time  |  max time  |%varavg| %total
---------------------------------------------------------------
Pair    | 0.0087786  | 0.0087786  | 0.0087786  |   0.0 | 71.85
Bond    | 0.0028094  | 0.0028094  | 0.0028094  |   0.0 | 22.99
Neigh   | 0          | 0          | 0          |   0.0 |  0.00
Comm    | 0.00037497 | 0.00037497 | 0.00037497 |   0.0 |  3.07
Output  | 0          | 0          | 0          |   0.0 |  0.00
Modify  | 0          | 0          | 0          |   0.0 |  0.00
Other   |            | 0.0002555  |            |       |  2.09

Nlocal:            271 ave         271 max         271 min
Histogram: 1 0 0 0 0 0 0 0 0 0
Nghost:           1773 ave        1773 max        1773 min
Histogram: 1 0 0 0 0 0 0 0 0 0
Neighs:          14722 ave       14722 max       14722 min
Histogram: 1 0 0 0 0 0 0 0 0 0

Total # of neighbors = 14722
Ave neighs/atom = 54.324723
Ave special neighs/atom = 6.2140221
Neighbor list builds = 0
Dangerous builds = 0

# Obtain new stress tensor

variable tmp equal pe
variable e1 equal ${tmp}
variable e1 equal -49.295325070619
variable tmp equal press
variable p1 equal ${tmp}
variable p1 equal -3103.10272909716
variable tmp equal pxx
variable pxx1 equal ${tmp}
variable pxx1 equal -13.9517318255175
variable tmp equal pyy
variable pyy1 equal ${tmp}
variable pyy1 equal -14.7739770148724
variable tmp equal pzz
variable pzz1 equal ${tmp}
variable pzz1 equal -9280.58247845108
variable tmp equal pxy
variable pxy1 equal ${tmp}
variable pxy1 equal -1470.28886653726
variable tmp equal pxz
variable pxz1 equal ${tmp}
variable pxz1 equal -4231.57765391261
variable tmp equal pyz
variable pyz1 equal ${tmp}
variable pyz1 equal -2154.38510896062

# Compute elastic constant from pressure tensor

variable C1pos equal ${d1}
variable C1pos equal 11.2639119235711
variable C2pos equal ${d2}
variable C2pos equal 7.67843386624411
variable C3pos equal ${d3}
variable C3pos equal 42.6072405416802
variable C4pos equal ${d4}
variable C4pos equal 4.78774476250865
variable C5pos equal ${d5}
variable C5pos equal 2.39778534707755
variable C6pos equal ${d6}
variable C6pos equal -0.53167761189755

# Combine positive and negative

variable C1${dir} equal 0.5*(${C1neg}+${C1pos})
variable C13 equal 0.5*(${C1neg}+${C1pos})
variable C13 equal 0.5*(18.9946560733413+${C1pos})
variable C13 equal 0.5*(18.9946560733413+11.2639119235711)
variable C2${dir} equal 0.5*(${C2neg}+${C2pos})
variable C23 equal 0.5*(${C2neg}+${C2pos})
variable C23 equal 0.5*(23.315581183004+${C2pos})
variable C23 equal 0.5*(23.315581183004+7.67843386624411)
variable C3${dir} equal 0.5*(${C3neg}+${C3pos})
variable C33 equal 0.5*(${C3neg}+${C3pos})
variable C33 equal 0.5*(49.7579385725295+${C3pos})
variable C33 equal 0.5*(49.7579385725295+42.6072405416802)
variable C4${dir} equal 0.5*(${C4neg}+${C4pos})
variable C43 equal 0.5*(${C4neg}+${C4pos})
variable C43 equal 0.5*(8.02587627792064+${C4pos})
variable C43 equal 0.5*(8.02587627792064+4.78774476250865)
variable C5${dir} equal 0.5*(${C5neg}+${C5pos})
variable C53 equal 0.5*(${C5neg}+${C5pos})
variable C53 equal 0.5*(2.368622474066+${C5pos})
variable C53 equal 0.5*(2.368622474066+2.39778534707755)
variable C6${dir} equal 0.5*(${C6neg}+${C6pos})
variable C63 equal 0.5*(${C6neg}+${C6pos})
variable C63 equal 0.5*(-2.45285480816575+${C6pos})
variable C63 equal 0.5*(-2.45285480816575+-0.53167761189755)

# Delete dir to make sure it is not reused

variable dir delete

# uyz Perturbation

variable dir equal 4
include ./input/displace_333-EXP-1-vasp.mod
if "${dir} == 1" then    "variable len0 equal ${lx0}"
if "${dir} == 2" then    "variable len0 equal ${ly0}"
if "${dir} == 3" then    "variable len0 equal ${lz0}"
if "${dir} == 4" then    "variable len0 equal ${lz0}"
variable len0 equal ${lz0}
variable len0 equal 16.608181223746
if "${dir} == 5" then    "variable len0 equal ${lz0}"
if "${dir} == 6" then    "variable len0 equal ${ly0}"

# Reset box and simulation parameters

clear
OMP_NUM_THREADS environment is not set. Defaulting to 1 thread.
  using 1 OpenMP thread(s) per MPI task
box tilt large

The 'box' command has been removed and will be ignored

read_restart restart_333-EXP-1-vasp.equil
Reading restart file ...
  restart file = 10 Sep 2025, LAMMPS = 10 Sep 2025
  restoring atom style full from restart
  triclinic box = (-0.0024488915 -0.0015512131 0.00069538813) to (14.751182 13.433381 16.608877) with tilt (-6.1986324 -1.0046649 -1.8604032)
  1 by 1 by 1 MPI processor grid
  restoring pair style lj/cut from restart
  restoring bond style harmonic from restart
  restoring angle style hybrid from restart
  restoring dihedral style harmonic from restart
  271 atoms
  291 bonds
  551 angles
  687 dihedrals
Finding 1-2 1-3 1-4 neighbors ...
  special bond factors lj:    0        0        1       
  special bond factors coul:  0        0        1       
     4 = max # of 1-2 neighbors
     8 = max # of 1-3 neighbors
    12 = max # of special neighbors
  special bonds CPU = 0.000 seconds
  read_restart CPU = 0.001 seconds
include ./input/angles_333-EXP-1-vasp.mod
angle_style hybrid fourier cosine/periodic
angle_coeff 1 fourier 58.020602        0.343737        0.374972        0.281246
angle_coeff 2 fourier 83.380072        0.343737        0.374972        0.281246
angle_coeff 3 fourier 157.882480        0.343737        0.374972        0.281246
angle_coeff 4 fourier 221.735285        0.343737        0.374972        0.281246
angle_coeff 5 fourier 32.417871        0.343737        0.374972        0.281246
angle_coeff 6 fourier 114.246973        0.343737        0.374972        0.281246
angle_coeff 7 fourier 90.420412        0.343737        0.374972        0.281246
angle_coeff 8 fourier 75.498766        0.343737        0.374972        0.281246
angle_coeff 9 cosine/periodic 88.853997              -1               3

# Negative deformation

variable delta equal -${up}*${len0}
variable delta equal -0.02*${len0}
variable delta equal -0.02*16.608181223746
variable deltaxy equal -${up}*xy
variable deltaxy equal -0.02*xy
variable deltaxz equal -${up}*xz
variable deltaxz equal -0.02*xz
variable deltayz equal -${up}*yz
variable deltayz equal -0.02*yz
if "${dir} == 1" then    "change_box all x delta 0 ${delta} xy delta ${deltaxy} xz delta ${deltaxz} remap units box"
if "${dir} == 2" then    "change_box all y delta 0 ${delta} yz delta ${deltayz} remap units box"
if "${dir} == 3" then    "change_box all z delta 0 ${delta} remap units box"
if "${dir} == 4" then    "change_box all yz delta ${delta} remap units box"
change_box all yz delta ${delta} remap units box
change_box all yz delta -0.33216362447492 remap units box
Changing box ...
  triclinic box = (-0.0024488915 -0.0015512131 0.00069538813) to (14.751182 13.433381 16.608877) with tilt (-6.1986324 -1.0046649 -2.1925668)
if "${dir} == 5" then    "change_box all xz delta ${delta} remap units box"
if "${dir} == 6" then    "change_box all xy delta ${delta} remap units box"

# Relax atoms positions

minimize ${etol} ${ftol} ${maxiter} ${maxeval}
minimize 0 ${ftol} ${maxiter} ${maxeval}
minimize 0 1e-10 ${maxiter} ${maxeval}
minimize 0 1e-10 100000 ${maxeval}
minimize 0 1e-10 100000 100000
Generated 6 of 6 mixed pair_coeff terms from arithmetic mixing rule
Neighbor list info ...
  update: every = 1 steps, delay = 0 steps, check = yes
  max neighbors/atom: 2000, page size: 100000
  master list distance cutoff = 7
  ghost atom cutoff = 7
  binsize = 3.5, bins = 7 5 5
  1 neighbor lists, perpetual/occasional/extra = 1 0 0
  (1) pair lj/cut, perpetual
      attributes: half, newton on
      pair build: half/bin/newton/tri
      stencil: half/bin/3d/tri
      bin: standard
WARNING: Inconsistent image flags
For more information see https://docs.lammps.org/err0027 (src/domain.cpp:1052)
Per MPI rank memory allocation (min/avg/max) = 17.48 | 17.48 | 17.48 Mbytes
   Step          Temp          E_pair         E_mol          TotEng         Press     
        85   0             -344.15748      301.57328     -42.584201      1051.421     
       110   0             -344.4077       289.46689     -54.940809      2682.6241    
Loop time of 0.0146274 on 1 procs for 25 steps with 271 atoms

101.5% CPU use with 1 MPI tasks x 1 OpenMP threads

Minimization stats:
  Stopping criterion = linesearch alpha is zero
  Energy initial, next-to-last, final = 
     -42.5842014450224    -54.94080858487    -54.94080858487
  Force two-norm initial, final = 113.28644 11.445172
  Force max component initial, final = 15.02242 1.4742433
  Final line search alpha, max atom move = 5.0528944e-11 7.4491957e-11
  Iterations, force evaluations = 25 105

MPI task timing breakdown:
Section |  min time  |  avg time  |  max time  |%varavg| %total
---------------------------------------------------------------
Pair    | 0.010668   | 0.010668   | 0.010668   |   0.0 | 72.93
Bond    | 0.0032494  | 0.0032494  | 0.0032494  |   0.0 | 22.21
Neigh   | 0          | 0          | 0          |   0.0 |  0.00
Comm    | 0.00041499 | 0.00041499 | 0.00041499 |   0.0 |  2.84
Output  | 0          | 0          | 0          |   0.0 |  0.00
Modify  | 0          | 0          | 0          |   0.0 |  0.00
Other   |            | 0.0002952  |            |       |  2.02

Nlocal:            271 ave         271 max         271 min
Histogram: 1 0 0 0 0 0 0 0 0 0
Nghost:           1807 ave        1807 max        1807 min
Histogram: 1 0 0 0 0 0 0 0 0 0
Neighs:          15018 ave       15018 max       15018 min
Histogram: 1 0 0 0 0 0 0 0 0 0

Total # of neighbors = 15018
Ave neighs/atom = 55.416974
Ave special neighs/atom = 6.2140221
Neighbor list builds = 0
Dangerous builds = 0

# Obtain new stress tensor

variable tmp equal pxx
variable pxx1 equal ${tmp}
variable pxx1 equal 3537.8405528688
variable tmp equal pyy
variable pyy1 equal ${tmp}
variable pyy1 equal 3889.32840141313
variable tmp equal pzz
variable pzz1 equal ${tmp}
variable pzz1 equal 620.703412225985
variable tmp equal pxy
variable pxy1 equal ${tmp}
variable pxy1 equal -1653.31268087051
variable tmp equal pxz
variable pxz1 equal ${tmp}
variable pxz1 equal -3874.13748296405
variable tmp equal pyz
variable pyz1 equal ${tmp}
variable pyz1 equal 1691.25038729494

# Compute elastic constant from pressure tensor

variable C1neg equal ${d1}
variable C1neg equal 6.4950494999005
variable C2neg equal ${d2}
variable C2neg equal 11.8420780258959
variable C3neg equal ${d3}
variable C3neg equal 6.89918891170516
variable C4neg equal ${d4}
variable C4neg equal 14.4404327187692
variable C5neg equal ${d5}
variable C5neg equal -0.610584492334749
variable C6neg equal ${d6}
variable C6neg equal -0.3834414597687

# Reset box and simulation parameters

clear
OMP_NUM_THREADS environment is not set. Defaulting to 1 thread.
  using 1 OpenMP thread(s) per MPI task
box tilt large

The 'box' command has been removed and will be ignored

read_restart restart_333-EXP-1-vasp.equil
Reading restart file ...
  restart file = 10 Sep 2025, LAMMPS = 10 Sep 2025
  restoring atom style full from restart
  triclinic box = (-0.0024488915 -0.0015512131 0.00069538813) to (14.751182 13.433381 16.608877) with tilt (-6.1986324 -1.0046649 -1.8604032)
  1 by 1 by 1 MPI processor grid
  restoring pair style lj/cut from restart
  restoring bond style harmonic from restart
  restoring angle style hybrid from restart
  restoring dihedral style harmonic from restart
  271 atoms
  291 bonds
  551 angles
  687 dihedrals
Finding 1-2 1-3 1-4 neighbors ...
  special bond factors lj:    0        0        1       
  special bond factors coul:  0        0        1       
     4 = max # of 1-2 neighbors
     8 = max # of 1-3 neighbors
    12 = max # of special neighbors
  special bonds CPU = 0.000 seconds
  read_restart CPU = 0.001 seconds
include ./input/angles_333-EXP-1-vasp.mod
angle_style hybrid fourier cosine/periodic
angle_coeff 1 fourier 58.020602        0.343737        0.374972        0.281246
angle_coeff 2 fourier 83.380072        0.343737        0.374972        0.281246
angle_coeff 3 fourier 157.882480        0.343737        0.374972        0.281246
angle_coeff 4 fourier 221.735285        0.343737        0.374972        0.281246
angle_coeff 5 fourier 32.417871        0.343737        0.374972        0.281246
angle_coeff 6 fourier 114.246973        0.343737        0.374972        0.281246
angle_coeff 7 fourier 90.420412        0.343737        0.374972        0.281246
angle_coeff 8 fourier 75.498766        0.343737        0.374972        0.281246
angle_coeff 9 cosine/periodic 88.853997              -1               3

# Positive deformation

variable delta equal ${up}*${len0}
variable delta equal 0.02*${len0}
variable delta equal 0.02*16.608181223746
variable deltaxy equal ${up}*xy
variable deltaxy equal 0.02*xy
variable deltaxz equal ${up}*xz
variable deltaxz equal 0.02*xz
variable deltayz equal ${up}*yz
variable deltayz equal 0.02*yz
if "${dir} == 1" then    "change_box all x delta 0 ${delta} xy delta ${deltaxy} xz delta ${deltaxz} remap units box"
if "${dir} == 2" then    "change_box all y delta 0 ${delta} yz delta ${deltayz} remap units box"
if "${dir} == 3" then    "change_box all z delta 0 ${delta} remap units box"
if "${dir} == 4" then    "change_box all yz delta ${delta} remap units box"
change_box all yz delta ${delta} remap units box
change_box all yz delta 0.33216362447492 remap units box
Changing box ...
  triclinic box = (-0.0024488915 -0.0015512131 0.00069538813) to (14.751182 13.433381 16.608877) with tilt (-6.1986324 -1.0046649 -1.5282396)
if "${dir} == 5" then    "change_box all xz delta ${delta} remap units box"
if "${dir} == 6" then    "change_box all xy delta ${delta} remap units box"

# Relax atoms positions

minimize ${etol} ${ftol} ${maxiter} ${maxeval}
minimize 0 ${ftol} ${maxiter} ${maxeval}
minimize 0 1e-10 ${maxiter} ${maxeval}
minimize 0 1e-10 100000 ${maxeval}
minimize 0 1e-10 100000 100000
Generated 6 of 6 mixed pair_coeff terms from arithmetic mixing rule
Neighbor list info ...
  update: every = 1 steps, delay = 0 steps, check = yes
  max neighbors/atom: 2000, page size: 100000
  master list distance cutoff = 7
  ghost atom cutoff = 7
  binsize = 3.5, bins = 7 5 5
  1 neighbor lists, perpetual/occasional/extra = 1 0 0
  (1) pair lj/cut, perpetual
      attributes: half, newton on
      pair build: half/bin/newton/tri
      stencil: half/bin/3d/tri
      bin: standard
WARNING: Inconsistent image flags
For more information see https://docs.lammps.org/err0027 (src/domain.cpp:1052)
Per MPI rank memory allocation (min/avg/max) = 17.48 | 17.48 | 17.48 Mbytes
   Step          Temp          E_pair         E_mol          TotEng         Press     
        85   0             -346.15864      305.55212     -40.606514      602.07587    
       105   0             -348.86855      296.37498     -52.493575      1069.9179    
Loop time of 0.013141 on 1 procs for 20 steps with 271 atoms

101.9% CPU use with 1 MPI tasks x 1 OpenMP threads

Minimization stats:
  Stopping criterion = linesearch alpha is zero
  Energy initial, next-to-last, final = 
     -40.6065135086649  -52.4935750684637  -52.4935750684637
  Force two-norm initial, final = 113.72574 13.827684
  Force max component initial, final = 13.992712 2.4433946
  Final line search alpha, max atom move = 5.8794557e-11 1.436583e-10
  Iterations, force evaluations = 20 94

MPI task timing breakdown:
Section |  min time  |  avg time  |  max time  |%varavg| %total
---------------------------------------------------------------
Pair    | 0.0095805  | 0.0095805  | 0.0095805  |   0.0 | 72.91
Bond    | 0.0029275  | 0.0029275  | 0.0029275  |   0.0 | 22.28
Neigh   | 0          | 0          | 0          |   0.0 |  0.00
Comm    | 0.00038066 | 0.00038066 | 0.00038066 |   0.0 |  2.90
Output  | 0          | 0          | 0          |   0.0 |  0.00
Modify  | 0          | 0          | 0          |   0.0 |  0.00
Other   |            | 0.0002523  |            |       |  1.92

Nlocal:            271 ave         271 max         271 min
Histogram: 1 0 0 0 0 0 0 0 0 0
Nghost:           1797 ave        1797 max        1797 min
Histogram: 1 0 0 0 0 0 0 0 0 0
Neighs:          15026 ave       15026 max       15026 min
Histogram: 1 0 0 0 0 0 0 0 0 0

Total # of neighbors = 15026
Ave neighs/atom = 55.446494
Ave special neighs/atom = 6.2140221
Neighbor list builds = 0
Dangerous builds = 0

# Obtain new stress tensor

variable tmp equal pe
variable e1 equal ${tmp}
variable e1 equal -52.4935750684637
variable tmp equal press
variable p1 equal ${tmp}
variable p1 equal 1069.91788864218
variable tmp equal pxx
variable pxx1 equal ${tmp}
variable pxx1 equal 2262.32507975765
variable tmp equal pyy
variable pyy1 equal ${tmp}
variable pyy1 equal 2635.48895755562
variable tmp equal pzz
variable pzz1 equal ${tmp}
variable pzz1 equal -1688.06037138671
variable tmp equal pxy
variable pxy1 equal ${tmp}
variable pxy1 equal -1851.50647462271
variable tmp equal pxz
variable pxz1 equal ${tmp}
variable pxz1 equal -3569.0511036207
variable tmp equal pyz
variable pyz1 equal ${tmp}
variable pyz1 equal -4132.68810084802

# Compute elastic constant from pressure tensor

variable C1pos equal ${d1}
variable C1pos equal -0.11747213434475
variable C2pos equal ${d2}
variable C2pos equal -5.57288080660835
variable C3pos equal ${d3}
variable C3pos equal 4.64463000635832
variable C4pos equal ${d4}
variable C4pos equal 14.6792597219457
variable C5pos equal ${d5}
variable C5pos equal -0.914847404382001
variable C6pos equal ${d6}
variable C6pos equal 1.3744104285297

# Combine positive and negative

variable C1${dir} equal 0.5*(${C1neg}+${C1pos})
variable C14 equal 0.5*(${C1neg}+${C1pos})
variable C14 equal 0.5*(6.4950494999005+${C1pos})
variable C14 equal 0.5*(6.4950494999005+-0.11747213434475)
variable C2${dir} equal 0.5*(${C2neg}+${C2pos})
variable C24 equal 0.5*(${C2neg}+${C2pos})
variable C24 equal 0.5*(11.8420780258959+${C2pos})
variable C24 equal 0.5*(11.8420780258959+-5.57288080660835)
variable C3${dir} equal 0.5*(${C3neg}+${C3pos})
variable C34 equal 0.5*(${C3neg}+${C3pos})
variable C34 equal 0.5*(6.89918891170516+${C3pos})
variable C34 equal 0.5*(6.89918891170516+4.64463000635832)
variable C4${dir} equal 0.5*(${C4neg}+${C4pos})
variable C44 equal 0.5*(${C4neg}+${C4pos})
variable C44 equal 0.5*(14.4404327187692+${C4pos})
variable C44 equal 0.5*(14.4404327187692+14.6792597219457)
variable C5${dir} equal 0.5*(${C5neg}+${C5pos})
variable C54 equal 0.5*(${C5neg}+${C5pos})
variable C54 equal 0.5*(-0.610584492334749+${C5pos})
variable C54 equal 0.5*(-0.610584492334749+-0.914847404382001)
variable C6${dir} equal 0.5*(${C6neg}+${C6pos})
variable C64 equal 0.5*(${C6neg}+${C6pos})
variable C64 equal 0.5*(-0.3834414597687+${C6pos})
variable C64 equal 0.5*(-0.3834414597687+1.3744104285297)

# Delete dir to make sure it is not reused

variable dir delete

# uxz Perturbation

variable dir equal 5
include ./input/displace_333-EXP-1-vasp.mod
if "${dir} == 1" then    "variable len0 equal ${lx0}"
if "${dir} == 2" then    "variable len0 equal ${ly0}"
if "${dir} == 3" then    "variable len0 equal ${lz0}"
if "${dir} == 4" then    "variable len0 equal ${lz0}"
if "${dir} == 5" then    "variable len0 equal ${lz0}"
variable len0 equal ${lz0}
variable len0 equal 16.608181223746
if "${dir} == 6" then    "variable len0 equal ${ly0}"

# Reset box and simulation parameters

clear
OMP_NUM_THREADS environment is not set. Defaulting to 1 thread.
  using 1 OpenMP thread(s) per MPI task
box tilt large

The 'box' command has been removed and will be ignored

read_restart restart_333-EXP-1-vasp.equil
Reading restart file ...
  restart file = 10 Sep 2025, LAMMPS = 10 Sep 2025
  restoring atom style full from restart
  triclinic box = (-0.0024488915 -0.0015512131 0.00069538813) to (14.751182 13.433381 16.608877) with tilt (-6.1986324 -1.0046649 -1.8604032)
  1 by 1 by 1 MPI processor grid
  restoring pair style lj/cut from restart
  restoring bond style harmonic from restart
  restoring angle style hybrid from restart
  restoring dihedral style harmonic from restart
  271 atoms
  291 bonds
  551 angles
  687 dihedrals
Finding 1-2 1-3 1-4 neighbors ...
  special bond factors lj:    0        0        1       
  special bond factors coul:  0        0        1       
     4 = max # of 1-2 neighbors
     8 = max # of 1-3 neighbors
    12 = max # of special neighbors
  special bonds CPU = 0.000 seconds
  read_restart CPU = 0.001 seconds
include ./input/angles_333-EXP-1-vasp.mod
angle_style hybrid fourier cosine/periodic
angle_coeff 1 fourier 58.020602        0.343737        0.374972        0.281246
angle_coeff 2 fourier 83.380072        0.343737        0.374972        0.281246
angle_coeff 3 fourier 157.882480        0.343737        0.374972        0.281246
angle_coeff 4 fourier 221.735285        0.343737        0.374972        0.281246
angle_coeff 5 fourier 32.417871        0.343737        0.374972        0.281246
angle_coeff 6 fourier 114.246973        0.343737        0.374972        0.281246
angle_coeff 7 fourier 90.420412        0.343737        0.374972        0.281246
angle_coeff 8 fourier 75.498766        0.343737        0.374972        0.281246
angle_coeff 9 cosine/periodic 88.853997              -1               3

# Negative deformation

variable delta equal -${up}*${len0}
variable delta equal -0.02*${len0}
variable delta equal -0.02*16.608181223746
variable deltaxy equal -${up}*xy
variable deltaxy equal -0.02*xy
variable deltaxz equal -${up}*xz
variable deltaxz equal -0.02*xz
variable deltayz equal -${up}*yz
variable deltayz equal -0.02*yz
if "${dir} == 1" then    "change_box all x delta 0 ${delta} xy delta ${deltaxy} xz delta ${deltaxz} remap units box"
if "${dir} == 2" then    "change_box all y delta 0 ${delta} yz delta ${deltayz} remap units box"
if "${dir} == 3" then    "change_box all z delta 0 ${delta} remap units box"
if "${dir} == 4" then    "change_box all yz delta ${delta} remap units box"
if "${dir} == 5" then    "change_box all xz delta ${delta} remap units box"
change_box all xz delta ${delta} remap units box
change_box all xz delta -0.33216362447492 remap units box
Changing box ...
  triclinic box = (-0.0024488915 -0.0015512131 0.00069538813) to (14.751182 13.433381 16.608877) with tilt (-6.1986324 -1.3368285 -1.8604032)
if "${dir} == 6" then    "change_box all xy delta ${delta} remap units box"

# Relax atoms positions

minimize ${etol} ${ftol} ${maxiter} ${maxeval}
minimize 0 ${ftol} ${maxiter} ${maxeval}
minimize 0 1e-10 ${maxiter} ${maxeval}
minimize 0 1e-10 100000 ${maxeval}
minimize 0 1e-10 100000 100000
Generated 6 of 6 mixed pair_coeff terms from arithmetic mixing rule
Neighbor list info ...
  update: every = 1 steps, delay = 0 steps, check = yes
  max neighbors/atom: 2000, page size: 100000
  master list distance cutoff = 7
  ghost atom cutoff = 7
  binsize = 3.5, bins = 7 5 5
  1 neighbor lists, perpetual/occasional/extra = 1 0 0
  (1) pair lj/cut, perpetual
      attributes: half, newton on
      pair build: half/bin/newton/tri
      stencil: half/bin/3d/tri
      bin: standard
WARNING: Inconsistent image flags
For more information see https://docs.lammps.org/err0027 (src/domain.cpp:1052)
Per MPI rank memory allocation (min/avg/max) = 17.48 | 17.48 | 17.48 Mbytes
   Step          Temp          E_pair         E_mol          TotEng         Press     
        85   0             -345.31412      299.32037     -45.993753      1138.6122    
       103   0             -346.13182      289.62691     -56.504909      1795.1586    
Loop time of 0.0128696 on 1 procs for 18 steps with 271 atoms

101.9% CPU use with 1 MPI tasks x 1 OpenMP threads

Minimization stats:
  Stopping criterion = linesearch alpha is zero
  Energy initial, next-to-last, final = 
     -45.9937527796563  -56.5049086064127  -56.5049086064127
  Force two-norm initial, final = 111.21192 14.614295
  Force max component initial, final = 12.39612 2.0854834
  Final line search alpha, max atom move = 3.142665e-11 6.5539757e-11
  Iterations, force evaluations = 18 92

MPI task timing breakdown:
Section |  min time  |  avg time  |  max time  |%varavg| %total
---------------------------------------------------------------
Pair    | 0.0093679  | 0.0093679  | 0.0093679  |   0.0 | 72.79
Bond    | 0.002855   | 0.002855   | 0.002855   |   0.0 | 22.18
Neigh   | 0          | 0          | 0          |   0.0 |  0.00
Comm    | 0.00035301 | 0.00035301 | 0.00035301 |   0.0 |  2.74
Output  | 0          | 0          | 0          |   0.0 |  0.00
Modify  | 0          | 0          | 0          |   0.0 |  0.00
Other   |            | 0.0002937  |            |       |  2.28

Nlocal:            271 ave         271 max         271 min
Histogram: 1 0 0 0 0 0 0 0 0 0
Nghost:           1805 ave        1805 max        1805 min
Histogram: 1 0 0 0 0 0 0 0 0 0
Neighs:          15038 ave       15038 max       15038 min
Histogram: 1 0 0 0 0 0 0 0 0 0

Total # of neighbors = 15038
Ave neighs/atom = 55.490775
Ave special neighs/atom = 6.2140221
Neighbor list builds = 0
Dangerous builds = 0

# Obtain new stress tensor

[...]
angle_coeff 4 fourier 221.735285        0.343737        0.374972        0.281246
angle_coeff 5 fourier 32.417871        0.343737        0.374972        0.281246
angle_coeff 6 fourier 114.246973        0.343737        0.374972        0.281246
angle_coeff 7 fourier 90.420412        0.343737        0.374972        0.281246
angle_coeff 8 fourier 75.498766        0.343737        0.374972        0.281246
angle_coeff 9 cosine/periodic 88.853997              -1               3

# Negative deformation

variable delta equal -${up}*${len0}
variable delta equal -0.02*${len0}
variable delta equal -0.02*13.4349324262194
variable deltaxy equal -${up}*xy
variable deltaxy equal -0.02*xy
variable deltaxz equal -${up}*xz
variable deltaxz equal -0.02*xz
variable deltayz equal -${up}*yz
variable deltayz equal -0.02*yz
if "${dir} == 1" then    "change_box all x delta 0 ${delta} xy delta ${deltaxy} xz delta ${deltaxz} remap units box"
if "${dir} == 2" then    "change_box all y delta 0 ${delta} yz delta ${deltayz} remap units box"
if "${dir} == 3" then    "change_box all z delta 0 ${delta} remap units box"
if "${dir} == 4" then    "change_box all yz delta ${delta} remap units box"
if "${dir} == 5" then    "change_box all xz delta ${delta} remap units box"
if "${dir} == 6" then    "change_box all xy delta ${delta} remap units box"
change_box all xy delta ${delta} remap units box
change_box all xy delta -0.268698648524388 remap units box
Changing box ...
  triclinic box = (-0.0024488915 -0.0015512131 0.00069538813) to (14.751182 13.433381 16.608877) with tilt (-6.4673311 -1.0046649 -1.8604032)

# Relax atoms positions

minimize ${etol} ${ftol} ${maxiter} ${maxeval}
minimize 0 ${ftol} ${maxiter} ${maxeval}
minimize 0 1e-10 ${maxiter} ${maxeval}
minimize 0 1e-10 100000 ${maxeval}
minimize 0 1e-10 100000 100000
Generated 6 of 6 mixed pair_coeff terms from arithmetic mixing rule
Neighbor list info ...
  update: every = 1 steps, delay = 0 steps, check = yes
  max neighbors/atom: 2000, page size: 100000
  master list distance cutoff = 7
  ghost atom cutoff = 7
  binsize = 3.5, bins = 7 5 5
  1 neighbor lists, perpetual/occasional/extra = 1 0 0
  (1) pair lj/cut, perpetual
      attributes: half, newton on
      pair build: half/bin/newton/tri
      stencil: half/bin/3d/tri
      bin: standard
WARNING: Inconsistent image flags
For more information see https://docs.lammps.org/err0027 (src/domain.cpp:1052)
Per MPI rank memory allocation (min/avg/max) = 17.48 | 17.48 | 17.48 Mbytes
   Step          Temp          E_pair         E_mol          TotEng         Press     
        85   0             -347.01516      301.84489     -45.170269      513.75055    
       105   0             -347.1596       291.24375     -55.915853      1611.6761    
Loop time of 0.0133095 on 1 procs for 20 steps with 271 atoms

101.9% CPU use with 1 MPI tasks x 1 OpenMP threads

Minimization stats:
  Stopping criterion = linesearch alpha is zero
  Energy initial, next-to-last, final = 
     -45.1702692582963  -55.9158529417367  -55.9158529417367
  Force two-norm initial, final = 111.3194 12.251584
  Force max component initial, final = 16.442453 2.4575438
  Final line search alpha, max atom move = 6.920275e-11 1.7006879e-10
  Iterations, force evaluations = 20 94

MPI task timing breakdown:
Section |  min time  |  avg time  |  max time  |%varavg| %total
---------------------------------------------------------------
Pair    | 0.0097163  | 0.0097163  | 0.0097163  |   0.0 | 73.00
Bond    | 0.0029553  | 0.0029553  | 0.0029553  |   0.0 | 22.20
Neigh   | 0          | 0          | 0          |   0.0 |  0.00
Comm    | 0.00035161 | 0.00035161 | 0.00035161 |   0.0 |  2.64
Output  | 0          | 0          | 0          |   0.0 |  0.00
Modify  | 0          | 0          | 0          |   0.0 |  0.00
Other   |            | 0.0002864  |            |       |  2.15

Nlocal:            271 ave         271 max         271 min
Histogram: 1 0 0 0 0 0 0 0 0 0
Nghost:           1809 ave        1809 max        1809 min
Histogram: 1 0 0 0 0 0 0 0 0 0
Neighs:          15045 ave       15045 max       15045 min
Histogram: 1 0 0 0 0 0 0 0 0 0

Total # of neighbors = 15045
Ave neighs/atom = 55.516605
Ave special neighs/atom = 6.2140221
Neighbor list builds = 0
Dangerous builds = 0

# Obtain new stress tensor

variable tmp equal pxx
variable pxx1 equal ${tmp}
variable pxx1 equal 2605.33200459991
variable tmp equal pyy
variable pyy1 equal ${tmp}
variable pyy1 equal 2588.17558353774
variable tmp equal pzz
variable pzz1 equal ${tmp}
variable pzz1 equal -358.479179375055
variable tmp equal pxy
variable pxy1 equal ${tmp}
variable pxy1 equal 546.378262265279
variable tmp equal pxz
variable pxz1 equal ${tmp}
variable pxz1 equal -2753.90593173322
variable tmp equal pyz
variable pyz1 equal ${tmp}
variable pyz1 equal -1194.61951635889

# Compute elastic constant from pressure tensor

variable C1neg equal ${d1}
variable C1neg equal 1.83250675855605
variable C2neg equal ${d2}
variable C2neg equal 5.33631393651895
variable C3neg equal ${d3}
variable C3neg equal 2.00327595369996
variable C4neg equal ${d4}
variable C4neg equal 0.0110832004999997
variable C5neg equal ${d5}
variable C5neg equal 4.9905732638194
variable C6neg equal ${d6}
variable C6neg equal 10.6150132559102

# Reset box and simulation parameters

clear
OMP_NUM_THREADS environment is not set. Defaulting to 1 thread.
  using 1 OpenMP thread(s) per MPI task
box tilt large

The 'box' command has been removed and will be ignored

read_restart restart_333-EXP-1-vasp.equil
Reading restart file ...
  restart file = 10 Sep 2025, LAMMPS = 10 Sep 2025
  restoring atom style full from restart
  triclinic box = (-0.0024488915 -0.0015512131 0.00069538813) to (14.751182 13.433381 16.608877) with tilt (-6.1986324 -1.0046649 -1.8604032)
  1 by 1 by 1 MPI processor grid
  restoring pair style lj/cut from restart
  restoring bond style harmonic from restart
  restoring angle style hybrid from restart
  restoring dihedral style harmonic from restart
  271 atoms
  291 bonds
  551 angles
  687 dihedrals
Finding 1-2 1-3 1-4 neighbors ...
  special bond factors lj:    0        0        1       
  special bond factors coul:  0        0        1       
     4 = max # of 1-2 neighbors
     8 = max # of 1-3 neighbors
    12 = max # of special neighbors
  special bonds CPU = 0.000 seconds
  read_restart CPU = 0.001 seconds
include ./input/angles_333-EXP-1-vasp.mod
angle_style hybrid fourier cosine/periodic
angle_coeff 1 fourier 58.020602        0.343737        0.374972        0.281246
angle_coeff 2 fourier 83.380072        0.343737        0.374972        0.281246
angle_coeff 3 fourier 157.882480        0.343737        0.374972        0.281246
angle_coeff 4 fourier 221.735285        0.343737        0.374972        0.281246
angle_coeff 5 fourier 32.417871        0.343737        0.374972        0.281246
angle_coeff 6 fourier 114.246973        0.343737        0.374972        0.281246
angle_coeff 7 fourier 90.420412        0.343737        0.374972        0.281246
angle_coeff 8 fourier 75.498766        0.343737        0.374972        0.281246
angle_coeff 9 cosine/periodic 88.853997              -1               3

# Positive deformation

variable delta equal ${up}*${len0}
variable delta equal 0.02*${len0}
variable delta equal 0.02*13.4349324262194
variable deltaxy equal ${up}*xy
variable deltaxy equal 0.02*xy
variable deltaxz equal ${up}*xz
variable deltaxz equal 0.02*xz
variable deltayz equal ${up}*yz
variable deltayz equal 0.02*yz
if "${dir} == 1" then    "change_box all x delta 0 ${delta} xy delta ${deltaxy} xz delta ${deltaxz} remap units box"
if "${dir} == 2" then    "change_box all y delta 0 ${delta} yz delta ${deltayz} remap units box"
if "${dir} == 3" then    "change_box all z delta 0 ${delta} remap units box"
if "${dir} == 4" then    "change_box all yz delta ${delta} remap units box"
if "${dir} == 5" then    "change_box all xz delta ${delta} remap units box"
if "${dir} == 6" then    "change_box all xy delta ${delta} remap units box"
change_box all xy delta ${delta} remap units box
change_box all xy delta 0.268698648524388 remap units box
Changing box ...
  triclinic box = (-0.0024488915 -0.0015512131 0.00069538813) to (14.751182 13.433381 16.608877) with tilt (-5.9299338 -1.0046649 -1.8604032)

# Relax atoms positions

minimize ${etol} ${ftol} ${maxiter} ${maxeval}
minimize 0 ${ftol} ${maxiter} ${maxeval}
minimize 0 1e-10 ${maxiter} ${maxeval}
minimize 0 1e-10 100000 ${maxeval}
minimize 0 1e-10 100000 100000
Generated 6 of 6 mixed pair_coeff terms from arithmetic mixing rule
Neighbor list info ...
  update: every = 1 steps, delay = 0 steps, check = yes
  max neighbors/atom: 2000, page size: 100000
  master list distance cutoff = 7
  ghost atom cutoff = 7
  binsize = 3.5, bins = 7 5 5
  1 neighbor lists, perpetual/occasional/extra = 1 0 0
  (1) pair lj/cut, perpetual
      attributes: half, newton on
      pair build: half/bin/newton/tri
      stencil: half/bin/3d/tri
      bin: standard
WARNING: Inconsistent image flags
For more information see https://docs.lammps.org/err0027 (src/domain.cpp:1052)
Per MPI rank memory allocation (min/avg/max) = 17.48 | 17.48 | 17.48 Mbytes
   Step          Temp          E_pair         E_mol          TotEng         Press     
        85   0             -343.7788       303.59456     -40.18424       1140.3998    
       102   0             -344.87725      293.83791     -51.039344      2226.317     
Loop time of 0.0127269 on 1 procs for 17 steps with 271 atoms

101.9% CPU use with 1 MPI tasks x 1 OpenMP threads

Minimization stats:
  Stopping criterion = linesearch alpha is zero
  Energy initial, next-to-last, final = 
     -40.1842398962625  -51.0393438943545  -51.0393438943545
  Force two-norm initial, final = 111.37238 16.110398
  Force max component initial, final = 15.677543 3.1172131
  Final line search alpha, max atom move = 2.4830034e-11 7.7400509e-11
  Iterations, force evaluations = 17 90

MPI task timing breakdown:
Section |  min time  |  avg time  |  max time  |%varavg| %total
---------------------------------------------------------------
Pair    | 0.0092748  | 0.0092748  | 0.0092748  |   0.0 | 72.88
Bond    | 0.0028797  | 0.0028797  | 0.0028797  |   0.0 | 22.63
Neigh   | 0          | 0          | 0          |   0.0 |  0.00
Comm    | 0.00033673 | 0.00033673 | 0.00033673 |   0.0 |  2.65
Output  | 0          | 0          | 0          |   0.0 |  0.00
Modify  | 0          | 0          | 0          |   0.0 |  0.00
Other   |            | 0.0002356  |            |       |  1.85

Nlocal:            271 ave         271 max         271 min
Histogram: 1 0 0 0 0 0 0 0 0 0
Nghost:           1797 ave        1797 max        1797 min
Histogram: 1 0 0 0 0 0 0 0 0 0
Neighs:          15049 ave       15049 max       15049 min
Histogram: 1 0 0 0 0 0 0 0 0 0

Total # of neighbors = 15049
Ave neighs/atom = 55.531365
Ave special neighs/atom = 6.2140221
Neighbor list builds = 0
Dangerous builds = 0

# Obtain new stress tensor

variable tmp equal pe
variable e1 equal ${tmp}
variable e1 equal -51.0393438943545
variable tmp equal press
variable p1 equal ${tmp}
variable p1 equal 2226.31697833508
variable tmp equal pxx
variable pxx1 equal ${tmp}
variable pxx1 equal 3547.81360703242
variable tmp equal pyy
variable pyy1 equal ${tmp}
variable pyy1 equal 3637.91371023787
variable tmp equal pzz
variable pzz1 equal ${tmp}
variable pzz1 equal -506.776382265038
variable tmp equal pxy
variable pxy1 equal ${tmp}
variable pxy1 equal -4082.95816516632
variable tmp equal pxz
variable pxz1 equal ${tmp}
variable pxz1 equal -4883.86401058551
variable tmp equal pyz
variable pyz1 equal ${tmp}
variable pyz1 equal -1069.57265155028

# Compute elastic constant from pressure tensor

variable C1pos equal ${d1}
variable C1pos equal -6.5449147707186
variable C2pos equal ${d2}
variable C2pos equal -10.5850045700196
variable C3pos equal ${d3}
variable C3pos equal -1.26178993925004
variable C4pos equal ${d4}
variable C4pos equal -0.63631752454305
variable C5pos equal ${d5}
variable C5pos equal 5.65921713044205
variable C6pos equal ${d6}
variable C6pos equal 12.5316688812477

# Combine positive and negative

variable C1${dir} equal 0.5*(${C1neg}+${C1pos})
variable C16 equal 0.5*(${C1neg}+${C1pos})
variable C16 equal 0.5*(1.83250675855605+${C1pos})
variable C16 equal 0.5*(1.83250675855605+-6.5449147707186)
variable C2${dir} equal 0.5*(${C2neg}+${C2pos})
variable C26 equal 0.5*(${C2neg}+${C2pos})
variable C26 equal 0.5*(5.33631393651895+${C2pos})
variable C26 equal 0.5*(5.33631393651895+-10.5850045700196)
variable C3${dir} equal 0.5*(${C3neg}+${C3pos})
variable C36 equal 0.5*(${C3neg}+${C3pos})
variable C36 equal 0.5*(2.00327595369996+${C3pos})
variable C36 equal 0.5*(2.00327595369996+-1.26178993925004)
variable C4${dir} equal 0.5*(${C4neg}+${C4pos})
variable C46 equal 0.5*(${C4neg}+${C4pos})
variable C46 equal 0.5*(0.0110832004999997+${C4pos})
variable C46 equal 0.5*(0.0110832004999997+-0.63631752454305)
variable C5${dir} equal 0.5*(${C5neg}+${C5pos})
variable C56 equal 0.5*(${C5neg}+${C5pos})
variable C56 equal 0.5*(4.9905732638194+${C5pos})
variable C56 equal 0.5*(4.9905732638194+5.65921713044205)
variable C6${dir} equal 0.5*(${C6neg}+${C6pos})
variable C66 equal 0.5*(${C6neg}+${C6pos})
variable C66 equal 0.5*(10.6150132559102+${C6pos})
variable C66 equal 0.5*(10.6150132559102+12.5316688812477)

# Delete dir to make sure it is not reused

variable dir delete

# Output final values

variable C11all equal ${C11}
variable C11all equal 34.7198048655049
variable C22all equal ${C22}
variable C22all equal 37.4682571624292
variable C33all equal ${C33}
variable C33all equal 46.1825895571048

variable C12all equal 0.5*(${C12}+${C21})
variable C12all equal 0.5*(12.2026794696402+${C21})
variable C12all equal 0.5*(12.2026794696402+9.8531788501698)
variable C13all equal 0.5*(${C13}+${C31})
variable C13all equal 0.5*(15.1292839984562+${C31})
variable C13all equal 0.5*(15.1292839984562+7.30350777120393)
variable C23all equal 0.5*(${C23}+${C32})
variable C23all equal 0.5*(15.4970075246241+${C32})
variable C23all equal 0.5*(15.4970075246241+16.8467909884824)

variable C44all equal ${C44}
variable C44all equal 14.5598462203574
variable C55all equal ${C55}
variable C55all equal 18.8148247176599
variable C66all equal ${C66}
variable C66all equal 11.573341068579

variable C14all equal 0.5*(${C14}+${C41})
variable C14all equal 0.5*(3.18878868277788+${C41})
variable C14all equal 0.5*(3.18878868277788+-0.0597919622463348)
variable C15all equal 0.5*(${C15}+${C51})
variable C15all equal 0.5*(-0.620969536125425+${C51})
variable C15all equal 0.5*(-0.620969536125425+-0.764294376583825)
variable C16all equal 0.5*(${C16}+${C61})
variable C16all equal 0.5*(-2.35620400608128+${C61})
variable C16all equal 0.5*(-2.35620400608128+-1.33811525511637)

variable C24all equal 0.5*(${C24}+${C42})
variable C24all equal 0.5*(3.13459860964377+${C42})
variable C24all equal 0.5*(3.13459860964377+2.13277482127071)
variable C25all equal 0.5*(${C25}+${C52})
variable C25all equal 0.5*(-1.7917542478458+${C52})
variable C25all equal 0.5*(-1.7917542478458+-2.29060171329275)
variable C26all equal 0.5*(${C26}+${C62})
variable C26all equal 0.5*(-2.62434531675032+${C62})
variable C26all equal 0.5*(-2.62434531675032+-2.4687199447109)

variable C34all equal 0.5*(${C34}+${C43})
variable C34all equal 0.5*(5.77190945903174+${C43})
variable C34all equal 0.5*(5.77190945903174+6.40681052021464)
variable C35all equal 0.5*(${C35}+${C53})
variable C35all equal 0.5*(0.787230457307837+${C53})
variable C35all equal 0.5*(0.787230457307837+2.38320391057178)
variable C36all equal 0.5*(${C36}+${C63})
variable C36all equal 0.5*(0.37074300722496+${C63})
variable C36all equal 0.5*(0.37074300722496+-1.49226621003165)

variable C45all equal 0.5*(${C45}+${C54})
variable C45all equal 0.5*(-0.236694310535975+${C54})
variable C45all equal 0.5*(-0.236694310535975+-0.762715948358375)
variable C46all equal 0.5*(${C46}+${C64})
variable C46all equal 0.5*(-0.312617162021525+${C64})
variable C46all equal 0.5*(-0.312617162021525+0.4954844843805)
variable C56all equal 0.5*(${C56}+${C65})
variable C56all equal 0.5*(5.32489519713072+${C65})
variable C56all equal 0.5*(5.32489519713072+2.66534598304965)

# Average moduli for cubic crystals

variable C11cubic equal (${C11all}+${C22all}+${C33all})/3.0
variable C11cubic equal (34.7198048655049+${C22all}+${C33all})/3.0
variable C11cubic equal (34.7198048655049+37.4682571624292+${C33all})/3.0
variable C11cubic equal (34.7198048655049+37.4682571624292+46.1825895571048)/3.0
variable C12cubic equal (${C12all}+${C13all}+${C23all})/3.0
variable C12cubic equal (11.027929159905+${C13all}+${C23all})/3.0
variable C12cubic equal (11.027929159905+11.2163958848301+${C23all})/3.0
variable C12cubic equal (11.027929159905+11.2163958848301+16.1718992565532)/3.0
variable C44cubic equal (${C44all}+${C55all}+${C66all})/3.0
variable C44cubic equal (14.5598462203574+${C55all}+${C66all})/3.0
variable C44cubic equal (14.5598462203574+18.8148247176599+${C66all})/3.0
variable C44cubic equal (14.5598462203574+18.8148247176599+11.573341068579)/3.0

variable bulkmodulus equal (${C11cubic}+2*${C12cubic})/3.0
variable bulkmodulus equal (39.4568838616796+2*${C12cubic})/3.0
variable bulkmodulus equal (39.4568838616796+2*12.8054081004294)/3.0
variable shearmodulus1 equal ${C44cubic}
variable shearmodulus1 equal 14.9826706688654
variable shearmodulus2 equal (${C11cubic}-${C12cubic})/2.0
variable shearmodulus2 equal (39.4568838616796-${C12cubic})/2.0
variable shearmodulus2 equal (39.4568838616796-12.8054081004294)/2.0
variable poissonratio equal 1.0/(1.0+${C11cubic}/${C12cubic})
variable poissonratio equal 1.0/(1.0+39.4568838616796/${C12cubic})
variable poissonratio equal 1.0/(1.0+39.4568838616796/12.8054081004294)

print "Elastic Constant 1 1 = ${C11all}"
Elastic Constant 1 1 = 34.7198048655049
print "Elastic Constant 2 2 = ${C22all}"
Elastic Constant 2 2 = 37.4682571624292
print "Elastic Constant 3 3 = ${C33all}"
Elastic Constant 3 3 = 46.1825895571048

print "Elastic Constant 1 2 = ${C12all}"
Elastic Constant 1 2 = 11.027929159905
print "Elastic Constant 1 3 = ${C13all}"
Elastic Constant 1 3 = 11.2163958848301
print "Elastic Constant 2 3 = ${C23all}"
Elastic Constant 2 3 = 16.1718992565532

print "Elastic Constant 4 4 = ${C44all}"
Elastic Constant 4 4 = 14.5598462203574
print "Elastic Constant 5 5 = ${C55all}"
Elastic Constant 5 5 = 18.8148247176599
print "Elastic Constant 6 6 = ${C66all}"
Elastic Constant 6 6 = 11.573341068579

print "Elastic Constant 1 4 = ${C14all}"
Elastic Constant 1 4 = 1.56449836026577
print "Elastic Constant 1 5 = ${C15all}"
Elastic Constant 1 5 = -0.692631956354625
print "Elastic Constant 1 6 = ${C16all}"
Elastic Constant 1 6 = -1.84715963059882

print "Elastic Constant 2 4 = ${C24all}"
Elastic Constant 2 4 = 2.63368671545724
print "Elastic Constant 2 5 = ${C25all}"
Elastic Constant 2 5 = -2.04117798056927
print "Elastic Constant 2 6 = ${C26all}"
Elastic Constant 2 6 = -2.54653263073061

print "Elastic Constant 3 4 = ${C34all}"
Elastic Constant 3 4 = 6.08935998962319
print "Elastic Constant 3 5 = ${C35all}"
Elastic Constant 3 5 = 1.58521718393981
print "Elastic Constant 3 6 = ${C36all}"
Elastic Constant 3 6 = -0.560761601403345

print "Elastic Constant 4 5 = ${C45all}"
Elastic Constant 4 5 = -0.499705129447175
print "Elastic Constant 4 6 = ${C46all}"
Elastic Constant 4 6 = 0.0914336611794875
print "Elastic Constant 5 6 = ${C56all}"
Elastic Constant 5 6 = 3.99512059009019

print "Bulk Modulus = ${bulkmodulus} ${cunits}"
Bulk Modulus = 21.6892333541795 GPa
print "Shear Modulus 1 = ${shearmodulus1} ${cunits}"
Shear Modulus 1 = 14.9826706688654 GPa
print "Shear Modulus 2 = ${shearmodulus2} ${cunits}"
Shear Modulus 2 = 13.3257378806251 GPa
print "Poisson Ratio = ${poissonratio}"
Poisson Ratio = 0.245021938756791

variable rho equal density
print "density (g/cm^3) = ${rho}"
density (g/cm^3) = 1.53221762862145
Total wall time: 0:00:00
