Generated by pymatgen.io.lammps.data.LammpsData

461  atoms

  4  atom types

0.000000 17.414700  xlo xhi
0.000000 15.597039  ylo yhi
0.000000 18.900959  zlo zhi
-10.711694 -1.698038 2.645564  xy xz yz

Masses

1  28.08550
2   1.00794
3  12.01070
4  15.99940

Atoms

1    1  -8.421866 15.045578  1.247274
2    1  -3.079480  4.812864  4.931449
3    1  -0.691851  3.829178 17.975757
4    1   2.426595  2.401431  9.625124
5    1  14.744654  2.843546 15.723330
6    1  -2.226487  6.606261  2.679778
7    1  -5.622738  9.529118  4.716545
8    1  -3.435598  8.555288  0.554932
9    1  -6.991555 10.650429 17.064542
10   1  -4.940674 10.831659  2.041304
11   1   7.076098 13.587001  3.169880
12   1  -6.484139 12.739668  0.312055
13   1  -6.200820 13.284105 15.789483
14   1   7.147912 15.015025 17.042806
15   1  -2.262104 15.514357  2.403446
16   1   2.851566  1.657281  3.356999
17   1   6.643384  1.849571  0.947694
18   1   2.999377  5.050991 11.038727
19   1  -4.756475 17.655890 15.143826
20   1   0.829111  5.964051 16.397527
21   1   4.952959  4.222485 13.271875
22   1   5.246268  6.663849  9.788240
23   1   4.059726  7.543813  7.208448
24   1  -2.516595 11.196999 17.810374
25   1   4.984206  9.907877 13.457672
26   1   0.137989 12.046969  2.314233
27   1  -3.989220 13.238051  3.578519
28   1  -1.053902 13.874336  0.081274
29   1  -0.362814 11.678768  7.165165
30   1  -0.120915 11.828469 12.603915
31   1  -2.997413 13.045237  6.508923
32   1  -5.504573 15.863656 17.531962
33   1   0.552735 14.361222 10.876368
34   1  14.060293  0.839969  1.318720
35   1   9.830847  2.061975  4.019667
36   1  11.630199  5.966836 18.468883
37   1   3.381592 16.087336  6.924933
38   1  12.269768  2.808719  5.815636
39   1  11.774103  3.321463 15.253263
40   1  11.180366  6.010159 13.866500
41   1   7.891253  9.999541 18.623304
42   1  11.065576  4.860088  7.701385
43   1   6.872788  8.781195 11.311846
44   1  10.091669  7.197667  5.962307
45   1  10.104089  8.725491 14.727060
46   1   9.754077  9.623529 11.756018
47   1   6.215716 10.775409  2.490768
48   1   1.607760 13.749897  8.145746
49   1   5.061521 14.121391  5.307389
50   1  -7.566429 12.569514 10.727617
51   1  -0.552280 16.737155 16.790289
52   2  -2.015502  6.373076  6.388146
53   2  -2.950578  5.252267  7.314104
54   2  -3.809387  6.672886  6.370568
55   2   2.648532  2.486572  7.249274
56   2   1.011637  3.017696  7.694202
57   2   1.632474  1.206766  7.647706
58   2   1.505282  1.720323 11.743544
59   2 -10.231461 16.619129 10.450151
60   2   0.250294  2.694867 10.906987
61   2   4.781911  1.872850  9.274134
62   2  -6.811485 15.916579  9.337641
63   2  -6.362009 16.899003 10.870698
64   2   3.524626 16.274776 14.388355
65   2   4.023418 16.000884 16.134426
66   2   5.229539 16.499312 14.874866
67   2  -0.837496  2.290240  0.243822
68   2   0.731456  3.279622  0.109437
69   2   0.593312  1.897732  1.328548
70   2  -0.131984  5.491869  1.833015
71   2  -1.299272  5.954770  0.577046
72   2  -1.647711  4.403651  1.465202
73   2  -1.402037  8.416296  4.268782
74   2  -0.081719  8.021703  3.174605
75   2  -0.448694  6.814787  4.394662
76   2  -6.223258 11.841691  5.537792
77   2  -6.219774 10.671554  6.766543
78   2   9.923086 10.527226  5.591660
79   2  -3.954633  9.319622  6.475847
80   2  -3.302809 10.312547  5.138793
81   2  -3.577752  8.572633  4.877581
82   2   8.032445 12.197368  4.924267
83   2  -8.369436 13.713231  4.673451
84   2  -8.313445 12.296791  3.608760
85   2  -5.405984 12.114412 13.914697
86   2  -4.351996 11.816457 15.333970
87   2  -4.214131 13.298506 14.402531
88   2  -8.051820 13.374743 14.197266
89   2  -6.955502 14.949518 14.024134
90   2  -8.027277 14.702329 15.345878
91   2 -10.384582 17.370727 16.286767
92   2  -9.876366 16.249770 14.975230
93   2  -8.658644 16.778543 16.215700
94   2   4.803317 14.742587 17.742897
95   2   5.361161 16.352206 18.160797
96   2   7.473944 12.262403  0.228513
97   2   4.318997  1.120690  5.330070
98   2   4.501786  2.797910  4.942790
99   2   5.252456  1.607456  3.968256
100  2   2.588696  3.363471  1.534191
101  2   3.341521  4.107881  2.991455
102  2   1.553137  3.777770  2.735725
103  2  -9.172495 16.000597  5.039374
104  2   0.477801  1.164011  3.714038
105  2   1.206481  2.181569  5.103637
106  2   5.292388  4.078797  1.073196
107  2   6.942849  4.211773  1.760246
108  2   5.799139  3.339500  2.716824
109  2   5.849832  5.559544 17.785424
110  2   6.722513  3.923949 18.143598
111  2   8.709546  2.682648  0.195814
112  2   0.826961  4.787066 11.967898
113  2   0.658253  5.988584 10.655794
114  2   1.320028  6.500214 12.200569
115  2   8.249004  3.131547 14.753333
116  2   7.728278  2.905923 16.444212
117  2   7.127424  4.285537 15.570988
118  2   1.307646  4.767098 14.334676
119  2   2.625517  4.598825 15.441327
120  2   2.380870  6.253912 14.590595
121  2   2.806670  6.210362 17.894294
122  2   1.577856  7.239712 18.426545
123  2   2.399683  7.645925 16.907097
124  2  -5.593531 15.643151  0.574589
125  2   3.704020  3.703551 17.999761
126  2   4.257796  1.591216  0.461372
127  2  -1.366920  6.952948 16.277506
128  2  -0.472841  7.040467 14.759948
129  2  -0.055061  8.271020 15.975280
130  2   6.458150  5.893238 14.327116
131  2   4.945691  5.801663 15.182762
132  2   5.067889  6.628344 13.544994
133  2   7.363985  3.633836 12.838287
134  2   6.672094  4.871260 11.784937
135  2   6.221225  3.104843 11.614072
136  2   6.802231  5.318424  8.455344
137  2   5.090329  4.761049  8.225130
138  2   5.837757  4.201303  9.678425
139  2   1.819435  6.442409  6.517996
140  2   1.992277  7.001674  8.291662
141  2   2.786360  5.478639  7.668875
142  2   5.262409  5.612178  6.112381
143  2   6.036197  7.160955  5.756854
144  2   4.608336  6.810972  4.887788
145  2  -4.010840  9.744713 16.351409
146  2  -2.504776  8.900976 16.900103
147  2  -2.465388 10.032379 15.489336
148  2  -0.192718 11.394756 18.508953
149  2  -0.771413  9.713508 18.832915
150  2   0.512566  8.437525  1.054106
151  2  -1.917967 13.631906 17.864241
152  2  -3.056489 13.137989 16.409246
153  2  -1.337019 12.663195 16.443645
154  2   3.456959  9.836995 11.508227
155  2   2.585573  9.674438 13.147129
156  2   3.472088  8.266760 12.488242
157  2   5.730305  9.316631 15.745633
158  2   4.252152  8.430962 15.365157
159  2   4.127183 10.132369 15.868300
160  2   4.698730 12.088836 12.369166
161  2   6.345751 11.968991 13.283594
162  2   4.648209 12.143878 14.251134
163  2  -1.463476 10.600508  3.714983
164  2  -0.609523  9.861430  2.163215
165  2  -1.978194 10.828908  2.000477
166  2   2.605031 12.156348  2.225399
167  2   2.052724 10.786023  1.267309
168  2   2.051022 10.614049  3.095221
169  2   0.420709 14.149018  3.705155
170  2   0.692775 12.636818  4.637350
171  2  -0.933383 13.154198  4.264245
172  2  -6.339943 13.336258  3.268354
173  2  -5.400058 14.933465  2.657097
174  2  -5.650970 14.748418  4.358183
175  2  -0.127600 10.673015  9.361078
176  2  -1.973041 10.735443  8.812005
177  2  -1.071780 12.108026  9.373931
178  2   2.953035  9.458763  7.623702
179  2   2.900947  9.256009  5.887649
180  2   4.374997  9.962593  6.799431
181  2   1.088940 10.641928  5.543084
182  2  -0.370413  9.653072  5.882923
183  2   0.865600  9.665668  7.051570
184  2  -0.299203  9.419767 12.966814
185  2   0.669373  9.664583 11.673799
186  2  -1.058135  9.809096 11.399168
187  2  -2.403542 12.631474 12.280142
188  2  -1.629802 13.262870 13.721151
189  2  -2.150641 11.489886 13.725120
190  2   0.631048 12.985565 14.546934
191  2   2.098309 12.204402 13.571456
192  2   0.956369 11.134734 14.575285
193  2  -4.319845 11.699087  8.238550
194  2  -4.919458 13.425812  7.919691
195  2  -3.481544 13.177272  8.826181
196  2  -2.302723 15.088875  7.686453
197  2  -3.461188 15.393973  6.467530
198  2  -1.764656 15.067467  6.005780
199  2   2.159644 15.034230 12.688214
200  2   2.624974 15.732780 10.996389
201  2   2.980345 14.170954 11.448122
202  2  -1.928958 15.143611 10.818720
203  2  -0.729464 16.500453 10.894891
204  2  -1.185677 15.524208 12.399029
205  2  -3.713129 15.492489 14.380984
206  2  -3.462717 16.707185 13.142971
207  2  -5.116846 16.043977 13.283216
208  2  15.925466  1.552655  2.590565
209  2  14.646908  0.674716  3.611406
210  2  14.310622  2.458257  3.075564
211  2  -1.276016  3.393468  3.944819
212  2  -1.559710  2.862133  5.621145
213  2  -0.556328  4.308775  5.254656
214  2  11.516704  0.670014  0.924635
215  2  12.049986  0.434687  2.730055
216  2   1.760395 14.652063  1.481268
217  2   2.486927 17.478859 18.534658
218  2   4.207294 13.990643  1.214198
219  2   5.521715 15.227619  0.798377
220  2   8.990416  3.634054  2.324062
221  2  10.571856  2.862524  1.919959
222  2  10.546210  4.285934  2.921899
223  2   7.974919  3.428056  4.964148
224  2   8.637758  2.133070  6.077603
225  2   7.584126  1.858516  4.693297
226  2  14.733925  3.629614 13.463342
227  2  -0.903935  3.542879 14.267767
228  2  -2.020371  4.958007 14.569804
229  2  -3.656502  7.089077 17.757073
230  2  -5.184262  7.765708 17.108770
231  2  12.945842  6.221222 16.419641
232  2  13.195418  4.158366  1.797670
233  2  11.856554  4.834524  0.923123
234  2  13.368334  5.456046  0.456080
235  2   9.584849  6.311540 16.957940
236  2   9.207293  5.652674 18.581155
237  2   9.978276  4.567919 17.287573
238  2  15.948868  1.624832  8.239873
239  2   4.724921 15.425720  8.795939
240  2   3.861143 16.657695  9.389618
241  2  12.214948  3.027870 12.861536
242  2  10.710148  2.178387 13.441606
243  2   1.568097 16.999330 13.681270
244  2  -3.832331  6.328061 13.912429
245  2  -4.526931  7.152801 12.470286
246  2  13.005656  5.316226 12.417741
247  2   8.954077  5.296986 13.216307
248  2  10.119321  4.965138 11.927450
249  2   9.715712  6.682479 12.120996
250  2   9.707039  7.479213  2.215003
251  2  10.551700  8.750574  1.359546
252  2  11.235286  7.019622  1.554604
253  2   6.839437  7.857684 17.665592
254  2   8.177908  5.548427  0.496528
255  2   9.811894  4.893455  0.048197
256  2   8.544614  4.128195  7.828966
257  2   8.999104  5.641783  8.905754
258  2   9.520744  4.001870  9.380168
259  2  12.349277  6.610512  8.904620
260  2  13.101978  4.962374  9.417214
261  2  11.594429  5.512335 10.029038
262  2   5.350378 10.081886  9.744389
263  2   7.150334 10.299713  9.270353
264  2   6.507274 11.089878 10.696809
265  2   8.191272  5.720345  5.611506
266  2   9.116924  5.902166  4.154809
267  2   7.896606  7.118374  4.540010
268  2   8.332602  7.656666  7.681539
269  2   9.059753  9.085578  7.090317
270  2   9.940261  8.043566  8.413195
271  2   7.902070  9.262051 14.960109
272  2   8.248269  7.981424 16.195098
273  2   7.865639  7.478472 14.488341
274  2  11.290105  7.910230 10.693218
275  2  -5.192059  9.358820 11.264405
276  2  -6.060486  9.511236  9.806007
277  2   5.551112  8.862983  3.922138
278  2   4.377289 10.150428  4.194501
279  2   5.954280 10.373067  4.873612
280  2   7.178600  7.920100  0.075226
281  2   6.126690 10.811853 17.318571
282  2   6.475116 12.063839 18.624627
283  2   8.384503 10.171810  3.304266
284  2   8.566998 10.302481  1.594674
285  2   7.779830  8.819446  2.377552
286  2   4.767096 11.309040  0.444173
287  2   4.499623  9.700358  1.136137
288  2   5.901664  9.997328  0.113217
289  2   2.516109 11.813600  9.360889
290  2   3.642981 13.165904  9.494897
291  2   3.662912 12.262366  8.032908
292  2   4.060697 12.400608  4.000577
293  2   2.815972 13.611274  4.468754
294  2   3.387973 12.463866  5.648174
295  2   6.961361 13.944550  6.941188
296  2   6.108568 12.387223  6.593789
297  2   5.444003 13.645544  7.736730
298  2   7.865802 13.956461 10.527456
299  2  -8.257909 14.810678 11.495563
300  2   8.172527 13.562373 12.276173
301  2  -7.399744 13.477062  8.490878
302  2   8.682617 12.381020  8.710129
303  2  -7.055480 11.743898  8.514126
304  2  -5.580314 14.077190 10.605517
305  2  -5.059539 12.467089 10.875045
306  2  -5.731104 13.410448 12.175809
307  2   5.899052 12.906579 16.259172
308  2   7.643694 12.952483 16.044457
309  2   6.786455 13.787784 14.871653
310  2  -0.279825 15.492152 14.648243
311  2  -1.663566 16.590884 14.764673
312  2  -1.923364 14.977012 15.556623
313  2   1.717289 15.795950 17.141847
314  2   0.605691 14.507864 17.588098
315  2   0.922061 15.809265 18.584179
316  3  -2.996387  5.884598  6.418388
317  3   1.860736  2.278351  7.888882
318  3   1.060282  1.892136 10.809269
319  3  -6.709798 16.919038  9.843808
320  3   4.180946 16.618954 15.221509
321  3   0.311011  2.283963  0.334925
322  3  -1.261035  5.437665  1.553848
323  3  -0.949439  7.560150  3.703643
324  3  -6.460394 10.784015  5.681250
325  3  -3.932396  9.439038  5.385639
326  3   8.462690 12.929972  4.224553
327  3  -4.924159 12.539736 14.776014
328  3  -7.394813 14.153497 14.664120
329  3  -9.746108 16.489957 16.060523
330  3   5.646224 15.299961 18.111277
331  3   4.378768  1.814884  4.496349
332  3   2.590939  3.363588  2.595858
333  3   1.364044  1.319396  4.401844
334  3   6.070589  3.491676  1.661205
335  3   6.236669  4.840116 18.536926
336  3   1.321884  5.650669 11.517677
337  3   7.435331  3.193301 15.506536
338  3   1.896169  5.342094 15.000557
339  3   2.030925  6.844551 17.547839
340  3   5.185956  1.061880  0.162926
341  3  -0.380230  7.183414 15.826907
342  3   5.361869  5.800177 14.157007
343  3   6.462987  3.926822 12.302823
344  3   5.827919  5.075305  8.993832
345  3   2.463785  6.543083  7.433369
346  3   5.103249  6.698240  5.894264
347  3  -2.891871  9.844455 16.511311
348  3  -0.955656 10.763862 18.895667
349  3  -2.206770 12.841013 17.077772
350  3   3.424675  9.355832 12.534549
351  3   4.736382  9.426185 15.237953
352  3   5.228192 11.763845 13.328956
353  3  -1.127853 10.691735  2.662956
354  3   1.871833 11.352842  2.225777
355  3   0.052843 13.087040  3.885848
356  3  -5.588303 14.158723  3.452449
357  3  -0.933131 11.218172  8.844326
358  3   3.546256  9.221873  6.771458
359  3   0.365064 10.274881  6.312731
360  3  -0.258880 10.050756 12.107198
361  3  -1.773795 12.345676 13.141081
362  3   1.040938 12.087405 14.011470
363  3  -4.071045 12.743201  7.970345
364  3  -2.545033 14.832352  6.660509
365  3   2.221701 14.924626 11.638832
366  3  -0.956052 15.439816 11.284629
367  3  -4.219777 16.324905 13.923013
368  3  14.823016  1.476593  2.824937
369  3  -1.493791  3.736348  4.960368
370  3   1.605813 15.799556  1.638524
371  3   4.447896 15.020872  0.784390
372  3   9.999720  3.409239  2.714745
373  3   8.417284  2.415303  5.108740
374  3  -1.956191  3.850659 14.362839
375  3  12.774737  6.844709 17.313845
376  3  12.900862  4.519399  0.811229
377  3   9.940873  5.619487 17.710010
378  3   4.389089 16.494824  8.456667
379  3  11.776526  2.367075 13.650840
380  3  12.807951  6.247223 13.061886
381  3   9.820648  5.717344 12.658161
382  3  10.380370  7.699963  1.329493
383  3   7.307802  8.240288 18.671879
384  3   9.382508  4.643504  8.482939
385  3  12.183864  5.529077  9.080021
386  3   6.419124 10.162991 10.128835
387  3   8.697482  6.480626  5.004785
388  3   9.294570  8.030192  7.458507
389  3   8.331188  8.259081 15.118877
390  3  11.246605  9.056131 10.783375
391  3   5.467811  9.966508  4.021557
392  3   6.372669 10.941828 18.427679
393  3   7.892435  9.908918  2.353169
394  3   5.254631 10.416425  0.925580
395  3   3.011305 12.614446  8.802177
396  3   3.680943 13.035015  4.810105
397  3   5.982773 13.473246  6.775427
398  3  -8.770180 13.847239 11.299371
399  3  -7.697919 12.531129  8.971340
400  3  -5.854268 13.144285 11.098832
401  3   6.752596 13.515284 16.004765
402  3  -1.173450 15.765265 15.302405
403  3   0.745203 15.589203 17.575813
404  4   0.207463  2.787289 18.730094
405  4  -1.864863  3.050337 17.110471
406  4  -3.088398  5.699576  3.649019
407  4  -3.191634  7.595496  1.823376
408  4  -6.066230 10.427437 18.395358
409  4  -5.521206  9.915849  3.170447
410  4  -4.121473  9.950987  1.044656
411  4  -9.758839 14.473682  1.949634
412  4  -6.110037 11.603213  1.292259
413  4  -7.320748 13.854488  1.099469
414  4  -6.907902 12.154740 16.617534
415  4  -9.085891 14.743879 18.059677
416  4   3.006747  0.517085  2.236739
417  4   7.231318  0.908976  2.019000
418  4   2.790662  3.915795  9.921869
419  4   0.241205  4.632494 16.947734
420  4   3.643117  4.383048 12.350832
421  4   4.960001  2.972496 14.321257
422  4   3.885670  6.282675 10.531614
423  4   4.908212  7.623812  8.557787
424  4  -3.721194 11.519465 18.822709
425  4  -3.930167 11.845097  2.796397
426  4  -2.751431 14.254582  3.234710
427  4  -0.180552 12.840929  0.956389
428  4  -1.551985 15.088908  1.043144
429  4  -3.874068 12.893973  5.165254
430  4  -1.643826 12.165912  6.395517
431  4  -5.605309 14.435132 16.809946
432  4  -4.075521 15.808810 18.354721
433  4  -5.511355 16.986682 16.449127
434  4  -6.753879 15.985802 18.607427
435  4   0.276627 12.835711 11.413722
436  4   9.542325  0.655607  3.354542
437  4  13.977072  1.942948  0.180693
438  4  13.010364  3.922425  4.951484
439  4  11.239592  2.015976  4.877770
440  4  13.431062  1.801916  6.257918
441  4  13.261349  3.374057 15.906480
442  4  11.250810  4.808590 14.944232
443  4   8.922613 10.331542 17.478473
444  4  11.562744  3.450497  7.090128
445  4   6.299763  7.379937 10.770144
446  4   6.231696  9.178090 12.721101
447  4  11.009603  8.123690  4.991932
448  4  10.880354  5.946606  6.518185
449  4  10.929668  7.409392 14.600991
450  4  10.831234  9.652138 15.858283
451  4   8.438551  8.745515 11.487058
452  4  10.157979  9.514587 13.325554
453  4   6.301814 12.373684  2.531216
454  4   0.636809 12.901129  7.184254
455  4   2.262343 14.941300  7.322988
456  4   0.776371 14.366309  9.304753
457  4   5.993067 14.363716  4.112471
458  4   4.370656 15.493793  5.837939
459  4   9.475157 11.122942 11.411076
460  4  10.825622  2.529705 16.309259
461  4  -1.720053 17.032962 17.839481

