Generated by pymatgen.io.lammps.data.LammpsData

447  atoms

  4  atom types

0.000000 16.387100  xlo xhi
0.000000 14.682355  ylo yhi
0.000000 19.401053  zlo zhi
-11.933090 2.231450 0.884970  xy xz yz

Masses

1  28.08550
2   1.00794
3  12.01070
4  15.99940

Atoms

1    1  -1.341460  3.209441  7.078668
2    1   0.243132  3.601362 16.633105
3    1  -0.694381  5.466174  2.409417
4    1  -5.019594  7.368203  4.728619
5    1  -2.420228  6.965652  0.406646
6    1  -2.187704  5.754715  8.377763
7    1  -4.644979  8.780344 10.857023
8    1  -2.195012  7.829603  6.162744
9    1   0.262476  6.518275 15.441492
10   1  -4.267509  8.695438  2.126743
11   1  -6.905135 11.464893  4.809521
12   1  -2.961480  9.846649  8.460605
13   1  -4.371827 11.836457  6.607805
14   1  -3.578776 10.969874 16.018867
15   1  -3.799114 14.048395 11.301695
16   1  -1.268283 13.852871  1.762198
17   1   5.469953  1.225210 17.622170
18   1   3.400816  3.194255  9.616908
19   1   4.133249  2.994804  5.105969
20   1   0.388652  7.789374  4.141349
21   1   3.642651  8.731716 18.632965
22   1   3.882786  5.046004  7.306049
23   1  -0.196952  7.438666  9.775415
24   1   3.003899  7.659682  5.955735
25   1   0.986587  8.967250 17.275280
26   1   0.535251  9.601609  1.617660
27   1   0.936179 12.309570 19.393875
28   1   1.341649  9.315776  7.837055
29   1  -1.724922 12.000971 10.220863
30   1   1.102700 11.138544 15.197427
31   1  -1.792247 12.640677 17.878264
32   1   0.266717 12.189487 12.567226
33   1   3.400955 14.288740  2.990672
34   1   9.663769  3.818113 14.506361
35   1  14.674360  1.423267 15.813022
36   1   7.732894  2.777180 18.984706
37   1  12.602011  3.448559 14.931244
38   1  10.320289  4.839331  3.525171
39   1   6.033651  7.726621  4.960849
40   1   7.296267  8.183203  0.559914
41   1   9.110310  4.464516  7.661864
42   1   5.448044  6.964505  9.139836
43   1   8.885871  7.343608  6.587434
44   1   5.835456  8.614104 16.566365
45   1   7.650681  9.678648  3.174594
46   1   2.935271 11.408852  2.042349
47   1   7.422087  9.196361  8.415401
48   1   3.172551 12.821313 11.750636
49   1   7.324619 11.871911  7.024539
50   1   2.419483 13.317725 16.974757
51   1   4.311363 15.107469 13.339970
52   2  13.970165  2.376187  5.037289
53   2  13.203268  3.842229  5.533180
54   2  12.829805  2.215545  6.382364
55   2  14.984832  0.695137  7.398398
56   2  14.738926  1.652742  8.834464
57   2  16.391642  1.398603  8.129817
58   2   0.036789  4.562481  5.293577
59   2   0.612054  2.756310  5.458874
60   2   0.881696  3.905817  6.701900
61   2   2.526238  3.562714 15.525111
62   2   1.338180  2.890051 14.467947
63   2   1.754406  1.968156 15.884418
64   2   1.047840  2.566188 18.710958
65   2   0.042781  3.930818 19.001779
66   2   1.794313  4.128981 18.414898
67   2  -3.046308  5.678693  3.073903
68   2  -1.975900  5.206154  4.450214
69   2  -2.491695  3.952940  3.328445
70   2   1.204153  4.131102  1.617466
71   2  -0.307358  3.228215  1.467884
72   2   0.341985  3.287134  3.033161
73   2  -2.152212  7.019687 18.666917
74   2  -3.680492  4.785877  0.393065
75   2  -0.601358  5.998232 18.200128
76   2  12.222674  5.254534  9.749999
77   2  12.211544  4.471220  8.143592
78   2  11.812113  6.140137  8.300741
79   2  -5.496659 11.046755 10.455616
80   2  -4.390435 11.006176 11.867430
81   2  -6.072544 10.381055 11.955511
82   2   9.580172  7.924805 11.684284
83   2  10.584594  6.602427 11.048318
84   2   9.790632  7.797371  9.875524
85   2   2.383644  5.935153 14.222912
86   2   1.533548  7.264402 13.470927
87   2   0.933519  5.704239 13.267798
88   2  -1.021021  8.125027 14.325932
89   2  -1.904938  7.656469 15.850660
90   2  -1.858268  6.485012 14.383941
91   2  -2.490584 10.245089 19.303854
92   2  -6.153710  9.869059  1.033688
93   2  -5.959703  8.252457  0.375410
94   2  -2.451006  9.861420  3.215919
95   2  -4.054468 10.602814  3.597537
96   2  -3.160171 11.067919  2.129072
97   2  -5.798846 12.391287  2.793170
98   2  -6.027242 13.693440  4.060834
99   2  -7.454823 13.198861  3.038787
100  2  -5.461054 13.942766  6.288657
101  2  -3.895476 14.113860  7.210207
102  2  -5.480587 13.541980  8.034170
103  2  -1.966814 12.471499  6.029071
104  2  -3.081174 12.592290  4.557113
105  2  -2.404575 10.986395  5.359929
106  2  -3.894565  8.726864 15.504158
107  2  11.146234  9.277269 16.533383
108  2  -3.751608  8.956145 17.363360
109  2  -3.251876 11.055799 13.634478
110  2  -1.912746 10.218552 14.508689
111  2  -2.083787 11.989177 14.668166
112  2  -5.963665 13.302920 10.318838
113  2  -6.117132 14.684383 11.561282
114  2  -6.008544 12.973697 12.056008
115  2  -4.577987 13.295533 16.137408
116  2  -5.697019 12.056351 16.617196
117  2  -5.420329 12.141041 14.814062
118  2  -2.926668 13.650735 13.604988
119  2  -4.232995 14.761587 13.575693
120  2   9.217291  0.821124 13.018689
121  2   8.094367  0.752193  9.170684
122  2   9.468773  1.185138 10.402651
123  2   7.685834  1.632181 10.717336
124  2  11.542586  1.354723  1.171242
125  2  12.977648  1.373173 19.092382
126  2   0.411053 14.683670  0.238051
127  2  -0.770984 14.182655  4.067237
128  2   0.668954 13.542353  3.198070
129  2  -0.594351 12.386247  3.638667
130  2   9.082649  0.382951  3.264615
131  2  -3.609022 13.753721  2.240822
132  2   8.747167  0.845798  1.698368
133  2   4.330305  2.612391 19.250695
134  2   3.114057  1.762597 18.262987
135  2   4.000245  3.112694 17.549611
136  2  -7.359707 14.565285 15.606789
137  2   6.071650  0.697355 15.255824
138  2   4.568499  1.713234 15.371842
139  2  -7.513261 13.753728 18.624623
140  2  -8.608463 13.824633  0.357755
141  2  -5.827055 13.595709 18.401705
142  2   2.359855  1.204167 10.562321
143  2   2.333728  1.093874  8.743085
144  2   1.190320  2.073917  9.682872
145  2   5.259115  2.277915  8.203541
146  2   4.990880  1.284311  9.692766
147  2   5.815263  2.944753  9.776773
148  2   2.179432  3.923717 11.732593
149  2   3.865880  4.667609 11.454382
150  2   3.539560  2.921044 11.899636
151  2   2.681074  0.961569  4.967058
152  2   2.320680  1.895246  6.509441
153  2   3.904843  1.054980  6.364709
154  2   5.468157  1.252676  4.077713
155  2   6.450411  2.232123  5.332767
156  2   6.109536  2.891330  3.558541
157  2   3.868236  4.277331  2.994941
158  2   2.371512  4.380699  4.005735
159  2   2.779787  2.817027  3.210680
160  2   4.192604  6.494633 18.026100
161  2   2.691606  6.528947 18.939308
162  2   1.993237  5.810195  0.423719
163  2   1.440926  5.629267  9.329190
164  2   0.412836  5.137195 10.850233
165  2   1.646511  6.491245 10.818997
166  2  -0.674269  7.810595 12.228678
167  2  -1.013321  9.255554 11.174425
168  2   0.746138  8.831164 11.826300
169  2   1.187422 11.455311  6.859048
170  2  -0.444321 10.736007  7.293244
171  2   0.440108 10.387726  5.744652
172  2  -0.101851 12.649639  8.498825
173  2  -0.361572 13.985692  9.688886
174  2  -1.581785 13.722195  8.437906
175  2   3.277840 10.329307 15.497949
176  2   3.206404 11.198333 14.061883
177  2   2.481156  9.484930 14.126877
178  2  -2.347565 14.434833 16.271469
179  2  -0.739707 13.582336 15.913326
180  2  -0.781135 14.822827 17.168186
181  2  -3.743424 13.572928 19.025643
182  2  -4.340003 13.342127  0.231261
183  2  -4.993857 11.775071  0.742866
184  2   0.931615 14.286829 13.261784
185  2  -0.727886 14.140061 13.752242
186  2  -0.328920 14.609443 11.994507
187  2  13.284443  1.035195  2.834494
188  2  14.246745  1.101775  1.268441
189  2  14.772516  1.960497  2.686852
190  2   2.280654 14.584160  5.163590
191  2   4.056587 14.818189  5.353333
192  2   3.303835 13.115751  5.288533
193  2   5.491151 13.685500  1.697980
194  2 -10.568660 14.223007  3.384320
195  2   0.887971  0.802607  2.045453
196  2   8.512529  2.063542 15.989572
197  2   7.524982  2.701956 14.596382
198  2   7.808209  3.768858 16.078817
199  2   8.879320  6.094215 14.529837
200  2  10.722264  5.988727 14.396357
201  2   9.898646  5.792979 15.979289
202  2   4.312820  1.088704  1.564501
203  2   6.194607  1.494628  1.949806
204  2  -6.302192 14.643525  1.125067
205  2   3.755212  3.542090  0.272973
206  2   7.044141  4.973457 18.217395
207  2   5.548078  4.146242  0.359308
208  2   7.720893  2.456998  0.110586
209  2   9.680190  3.576005 17.734891
210  2   9.973071  1.920580 18.333801
211  2  12.518775  3.585627 12.583329
212  2  14.066750  4.342518 13.108321
213  2  12.530226  5.342094 13.330464
214  2  13.721769  5.150343 16.343253
215  2  13.159985  3.774818 17.290995
216  2  11.943486  4.960988 16.811012
217  2  11.891067  3.322759  2.410775
218  2  10.364147  2.518094  2.982136
219  2  11.621234  2.929577  4.174913
220  2  11.382705  5.894358  1.782763
221  2   9.728666  6.493040  2.022754
222  2   9.916111  4.918203  1.182494
223  2   4.401937  6.477717  3.688916
224  2   5.685366  5.493161  4.208088
225  2   6.108210  6.641338  2.776097
226  2   9.188244 11.249060 19.052610
227  2   9.264209 10.065209 17.703655
228  2  -5.569947 10.754911 18.500262
229  2   8.206903  5.287539  4.483389
230  2   8.427235  3.583280  4.349716
231  2   7.947996  4.390724  2.831778
232  2  11.249489  7.423626 19.211505
233  2   9.660118  7.199275 18.326235
234  2   7.726333  5.754182  0.647413
235  2   8.262384  3.589682 12.524156
236  2  10.006651  3.234541 12.209277
237  2   9.576645  4.940900 12.343920
238  2   6.811296  4.088906  8.069868
239  2   7.523889  2.720845  7.179166
240  2   7.105737  4.323813  6.267122
241  2  10.464190  2.472147  7.466107
242  2  11.083451  3.892447  6.276823
243  2   9.655023  2.768106  5.984643
244  2   9.741130  4.890152 10.056536
245  2   9.925184  3.174106  9.664441
246  2   8.281286  3.851122  9.951188
247  2  -2.899927  8.834550 12.589343
248  2  -2.893937  7.403682 11.477275
249  2  -4.127313  7.523886 12.860376
250  2   6.316270  5.185332 10.579394
251  2   6.560440  6.911275 11.214197
252  2   7.661185  6.303404 10.006675
253  2   3.849976  7.015854 11.054138
254  2   3.117753  7.504996  9.468878
255  2   4.229841  8.590707 10.446303
256  2   3.789154  7.713145 15.223036
257  2   5.066743  6.522827 15.457595
258  2   5.290513  7.826439 14.246581
259  2   8.164464  8.092428 16.736706
260  2   7.232894  6.644197 16.306197
261  2   7.091200  7.209566 17.991761
262  2   7.211423  9.165842 19.218101
263  2   5.113149  8.859227  1.397846
264  2   5.125672  7.064644  1.144468
265  2   6.012928 10.414054 14.684269
266  2   7.590912 10.039861 15.367962
267  2   6.451424 10.928601 16.398352
268  2  -8.753382 11.661996  1.856099
269  2   6.547330 11.843580  3.435732
270  2   5.984797 10.859277  1.816715
271  2   4.494735 11.224814  3.820843
272  2   4.073356  9.595840  3.387036
273  2   2.965931 10.666151  4.364849
274  2   8.595553 10.339046 10.162272
275  2   7.988666  8.878116 10.798820
276  2   6.833431 10.261955 10.744691
277  2   1.369774 11.130385  9.575584
278  2   3.044942 10.664364  9.005775
279  2   2.099180  9.644907 10.114933
280  2   5.420547 12.066504 11.177917
281  2   4.314330 10.760907 11.186647
282  2   4.884148 11.406441 12.746686
283  2   3.221128 13.008650  9.255854
284  2   4.135188 14.362805  9.996199
285  2   2.404789 14.425136  9.988244
286  2   4.297463 10.463502  0.260168
287  2   4.663428 12.051589  0.315849
288  2   5.179156 12.391397 19.121290
289  2   5.870497 13.448240  6.030623
290  2   4.999561 12.760923  7.539443
291  2   5.115483 11.843421  6.036250
292  2  -8.164236 13.799429  8.315679
293  2  -7.460320 12.178450  8.839314
294  2   7.304781 12.754026  9.329190
295  2   4.899355 13.501708 17.152083
296  2   4.576076 12.894777 15.549944
297  2   4.378181 11.763158 16.849233
298  2  14.981795  2.250756 12.407361
299  2  15.823388  1.500840 11.092164
300  2   0.358039  2.546154 12.185025
301  2   6.491245 13.989146 14.045586
302  2   2.183048  1.071981 13.274783
303  2   6.477289 14.201969 12.305894
304  3  13.587298  2.884371  5.935946
305  3  15.346922  1.586340  7.903407
306  3   0.124689  3.643277  5.999776
307  3   1.650778  2.962156 15.511142
308  3   0.849435  3.593518 18.353784
309  3  -2.221160  5.038137  3.412645
310  3   0.240362  3.904735  2.081733
311  3  -1.234970  6.452097 19.008764
312  3  12.441139  5.361756  8.701566
313  3  -5.171606 10.492701 11.358152
314  3  10.269419  7.625426 10.837622
315  3   1.429521  6.293220 13.906675
316  3  -1.324752  7.280009 14.965390
317  3  -5.400274  9.040692  0.760327
318  3  -3.391599 10.165010  2.777261
319  3  -6.516693 12.818964  3.562033
320  3  -4.799959 13.509381  7.055581
321  3  -2.835414 11.979697  5.483126
322  3  -4.158255  9.284368 16.367116
323  3  -2.614886 11.022745 14.506361
324  3  -5.684369 13.744678 11.325559
325  3  -4.986910 12.245992 15.843482
326  3  -3.302268 14.537288 13.013450
327  3   8.384068  0.856893 10.229981
328  3  11.437023  0.366331  0.611715
329  3  -0.430536 13.465129  3.352696
330  3  -2.904670 14.565094  2.280012
331  3   4.078885  2.280578 18.259495
332  3   5.114310  0.805877 15.816320
333  3  -6.577137 14.363373 18.741223
334  3   2.204654  1.747838  9.618848
335  3   5.037832  2.312550  9.291164
336  3   3.243049  3.802739 11.359317
337  3   3.102965  1.583027  5.806153
338  3   5.723315  2.294397  4.454482
339  3   3.159590  3.753149  3.699393
340  3   3.741206  6.907988 18.902640
341  3   0.896555  6.014950 10.252486
342  3  -0.260608  8.463741 11.415968
343  3   0.563324 10.591364  6.761655
344  3  -0.852031 13.182144  9.090557
345  3   2.709105 10.424051 14.633050
346  3  -1.399038 14.058498 16.711873
347  3  -2.716602 13.329925 19.276498
348  3  -0.055602 13.945795 12.885985
349  3  14.297590  1.083725  2.401656
350  3   3.300186 14.175412  4.880529
351  3 -11.192868 14.459186  2.504288
352  3   8.227069  2.999536 15.377857
353  3   9.816020  5.608564 14.897681
354  3   5.404338  1.015190  1.227505
355  3   7.014060  4.520238 19.215773
356  3   9.535922  2.880916 18.567972
357  3  12.971865  4.307066 13.322509
358  3  12.897132  4.467171 16.475180
359  3  11.135130  3.234823  3.270436
360  3  10.377773  5.622465  1.899169
361  3   5.518202  6.413679  3.762446
362  3   9.756914 10.383536 18.676036
363  3   8.511422  4.498204  3.803964
364  3  10.189780  7.421081 19.300556
365  3   9.320228  3.932219 12.710794
366  3   7.432880  3.845246  7.234459
367  3  10.262668  3.335418  6.734300
368  3   9.289234  4.046304  9.488861
369  3  -3.484740  8.050752 12.092482
370  3   6.628323  6.233571 10.355506
371  3   4.020807  7.542305 10.112993
372  3   4.897984  7.587164 15.280851
373  3   7.275207  7.505160 16.933627
374  3   5.451400  8.064922  0.786519
375  3   6.475469 10.155498 15.643457
376  3   6.834896 11.240927  2.497110
377  3   3.712949 10.594568  3.551945
378  3   7.671480  9.727472 10.199716
379  3   2.022266 10.283462  9.275255
380  3   4.587497 11.650782 11.717266
381  3   3.259429 13.729840 10.082921
382  3   3.816720 11.376515  0.445060
383  3   5.682659 12.542607  6.644861
384  3  -8.355319 12.752484  8.490677
385  3   4.229928 12.812043 16.617002
386  3  15.970009  1.821068 12.151268
387  3   6.159200 14.726851 13.222982
388  4  -1.109984  6.341489  1.107994
389  4  -1.459622  4.338078  8.214988
390  4  -3.566905  7.868826  5.316665
391  4  -2.138655  6.470390  6.927340
392  4  -0.137034  5.098747 16.106948
393  4  -5.122138  8.147675  3.331355
394  4  -3.176215  7.712065  1.567799
395  4  -3.840979  8.860004  9.397482
396  4  -2.239891  9.029533  7.281603
397  4  -5.617727 11.212390  5.775888
398  4  -3.948853 10.989310  7.873335
399  4   0.129747  6.379315  3.401781
400  4  -0.819756  8.016676  5.213645
401  4   3.125860  4.255558  8.446636
402  4   4.436485  4.011216  6.250825
403  4  -1.526713  6.776081  9.393020
404  4   1.942627  7.793721  4.742005
405  4   2.996162  6.159930  6.607029
406  4   0.916670  7.558754 16.512042
407  4   2.440975  9.194725 17.662525
408  4   0.167665  8.851690 18.626951
409  4   0.171239  8.915827  2.950900
410  4   1.381402  8.620591  0.646831
411  4  -0.728249 10.117060  0.828037
412  4  -1.636357 12.466466  1.068028
413  4   0.363973  8.174595  8.514734
414  4   2.551062  8.627634  7.100397
415  4  -1.896984 10.619782  9.415719
416  4  -3.082861 12.684300 10.671743
417  4   0.505070 10.126927 16.272439
418  4  -2.608458 11.455341 17.143741
419  4  -0.395311 12.021409 18.506664
420  4  -0.828551 11.753636 11.496870
421  4   0.217502 11.365917 13.902213
422  4  15.434272  2.572072 16.628643
423  4   6.879260  1.923994 17.919395
424  4  11.041751  3.102697 14.871295
425  4  13.422224  2.066972 15.054053
426  4  11.159671  5.771469  4.483389
427  4   4.600179  8.042806  5.696343
428  4   5.083430  5.825413  8.076852
429  4  10.066976  7.833223  5.636976
430  4   7.376852  7.177469  5.797035
431  4   9.348566  6.024516  7.394711
432  4   5.004865  9.086632 17.838880
433  4   6.536969  9.004484  4.179957
434  4   7.956003  8.707494  1.937195
435  4  -7.461592 10.168322  4.008646
436  4   1.458712 10.840439  1.902661
437  4   2.854357 12.950982  2.332977
438  4   6.197929  8.171575  8.351959
439  4   8.634216  8.397238  7.733842
440  4   1.776590 12.072928 11.978598
441  4  -8.111210 11.985914  5.741742
442  4   7.042957 10.431848  7.465137
443  4   1.361571 12.508072 15.952904
444  4   2.333549 14.909400 16.812953
445  4   2.072826 12.898255 18.497352
446  4   3.492013 13.895626 12.864450
447  4  15.796189  0.866356 14.821434

