Generated by pymatgen.io.lammps.data.LammpsData

475  atoms

  4  atom types

0.000000 16.454600  xlo xhi
0.000000 17.543546  ylo yhi
0.000000 18.779854  zlo zhi
-11.708099 3.806781 -3.124092  xy xz yz

Masses

1  28.08550
2   1.00794
3  12.01070
4  15.99940

Atoms

1    1 13.311982  1.243666  3.952596
2    1  0.335178  1.728263  0.483769
3    1  5.884582  0.638890  7.054464
4    1 15.553893  1.673296  9.739232
5    1 -5.438164 13.768995 15.811886
6    1 -1.891823  3.943113  0.313060
7    1 -5.140612 11.553919  7.919465
8    1 -0.328238  4.316976  8.410182
9    1 12.835805  6.971856 12.087465
10   1 -1.736848  6.644987  6.977091
11   1 14.064493  4.218426 16.284575
12   1 -1.564935 11.135095 16.503173
13   1  9.876387 10.955593 16.407395
14   1 -3.280381 12.430359 14.224049
15   1  7.015221  3.400475  1.837045
16   1  8.812908  0.557995 18.232234
17   1 -0.857815 14.730702  9.785055
18   1  6.620010  1.625350  9.856607
19   1  6.379082 -1.041480 17.233709
20   1  8.536043  0.351655 11.804641
21   1  3.762231  6.068009  0.834952
22   1  5.907444  5.222312 18.236365
23   1  1.663438  5.727638 10.263190
24   1  5.176113  8.062573  5.130093
25   1  4.147729  4.870923 15.774890
26   1  0.659707  9.534295  1.825026
27   1  7.496278  0.406227  1.801739
28   1  4.717501 12.056094  9.146540
29   1 -1.079047 13.113797 12.268128
30   1  3.951996  7.893708 14.962661
31   1  1.812628 13.505817 12.953029
32   1 14.945502 -1.050605  8.326612
33   1 11.531141 -0.050008 10.833910
34   1 12.715344 -0.566983  6.340079
35   1 16.268545  0.026186 13.920379
36   1 10.979709  0.250750 16.048512
37   1 13.956778  1.045700 12.299114
38   1 -5.678160 11.884185  4.903796
39   1  5.627344  8.096889  2.094329
40   1 11.373590  1.485511  8.182007
41   1 12.313381  2.527103 14.483024
42   1  8.290531  5.642849 16.352746
43   1 10.959695  4.689771 12.802602
44   1  5.206811 11.087011  1.688309
45   1  0.033275 11.833154  3.782638
46   1  7.840827  9.922592 18.536843
47   1  3.610748 14.482132 10.685549
48   1  5.507510 16.262583  6.242799
49   1  8.267143  5.992945 13.375012
50   1  5.313507  9.712013 16.868816
51   1  5.896927 15.175980 12.611236
52   2 10.888041  1.234441  4.502658
53   2 11.238899  1.552486  2.699416
54   2 11.433973  2.766634  3.978888
55   2 13.963168  3.518362  3.450610
56   2 -1.065519  2.484919  3.756159
57   2 14.264342  3.148779  5.123895
58   2  2.214189  0.758490  1.912540
59   2  0.579760  0.391639  2.569647
60   2  1.255219  2.171622  2.724581
61   2  3.501244 17.379245  0.096528
62   2  8.884053 13.718547 18.567079
63   2 19.761019 -2.805107 17.395967
64   2 -6.451259 16.142464  5.642407
65   2 -6.514837 15.858243  7.517576
66   2 -4.823289 15.987257  6.597551
67   2  6.532741  1.162062  4.816469
68   2  7.977142  0.849737  5.805980
69   2  7.278019  2.436475  6.035282
70   2  4.299562  2.530705  7.638142
71   2  3.556383  0.932372  7.632508
72   2  3.786350  1.618093  6.033028
73   2  1.380015  1.144691  9.049636
74   2  0.920660  0.327804 10.602355
75   2  1.394394  2.047120 10.680103
76   2 -6.356026 15.124775 14.027424
77   2 -7.689161 14.556344 15.189710
78   2 -7.146637 13.448164 13.975592
79   2 13.563902  0.860594  1.533939
80   2  1.181059 16.943521  2.376215
81   2 14.766212 -0.212276  2.372835
82   2 16.415101 -0.842052 18.658724
83   2 15.889837  0.858016 18.764643
84   2 12.466447  3.153074  1.552531
85   2  1.457544  1.789071 16.881023
86   2  2.428663  0.272051 16.735667
87   2  3.163812  1.928347 17.258686
88   2 -2.715002  5.876882  1.560981
89   2 -1.487336  6.350163  0.476069
90   2 -1.146808  5.369079  2.145786
91   2 -5.147813 13.857738  8.517415
92   2 -6.099897 12.961544  9.761205
93   2 -6.813450 13.284248  8.209426
94   2  9.054229 10.490684  7.914770
95   2 10.146384  9.900613  9.255651
96   2 10.288620  9.227405  7.604526
97   2  0.188452  3.080242  6.536704
98   2  1.601312  3.265354  7.653354
99   2  1.327241  4.415733  6.417076
100  2 -3.371182  8.285578 14.226866
101  2 -2.399142  9.004689 12.981387
102  2 -1.746555  7.412636 13.804883
103  2 11.303353  8.796422 11.450265
104  2 11.315741  7.511545 10.217368
105  2 -3.768082  8.770713 10.227509
106  2 -3.605067 11.115588  9.736040
107  2 -2.741497 11.972460  8.329992
108  2 -3.083623 10.235845  8.226515
109  2 -1.900421  5.557189  4.758815
110  2 -0.194383  6.271037  5.046710
111  2 -1.591567  7.369766  4.752618
112  2 -3.992357  8.019353  6.877934
113  2 -3.645081  7.143952  8.335251
114  2 12.339630  6.193497  6.867981
115  2  0.518224  7.746604  7.385929
116  2 -0.634288  7.987782  8.696012
117  2 -0.778356  8.934122  7.092775
118  2 12.635326  6.137343 15.710851
119  2 -2.509167  6.537443 16.932480
120  2 12.355435  5.522038 17.411179
121  2 -0.534069  3.573545 14.675142
122  2 -0.443408  5.386486 15.156094
123  2 -1.691729  4.709150 13.993808
124  2 14.185645  3.329314 18.537219
125  2 -1.223535  4.705448 18.263972
126  2 15.747150  3.052306 17.626020
127  2 -5.647713 14.939945  0.147422
128  2 -3.428954 11.647006 18.229605
129  2 -2.477823 13.059372 17.832411
130  2 -0.991299  8.853203 15.927382
131  2 -2.455161  8.932540 17.125161
132  2 -0.668466  9.302207 17.693440
133  2  0.524999 10.935878 15.371123
134  2  0.785746 11.652051 17.067695
135  2  0.081744 12.710023 15.717236
136  2 11.408497  9.196215 17.142063
137  2 -4.429980 10.125575 15.727377
138  2 10.745825  8.797982 15.542207
139  2 -5.142497 12.169360 12.664007
140  2 -4.832927 10.727884 13.616897
141  2 -3.678905 11.106229 12.301180
142  2  5.932500  5.005277  3.191636
143  2  6.980324  3.806263  4.192978
144  2  5.317048  3.309775  3.543383
145  2  8.787506  4.986886  2.346731
146  2  7.863988  5.253841  0.692413
147  2  9.251353  4.057805  0.912325
148  2 -1.717617 15.774631  7.738615
149  2 -3.035738 15.769413  8.988038
150  2 -2.503865 14.275329  7.903314
151  2  0.933990 14.104363  8.274028
152  2 -0.056027 12.616557  8.679673
153  2  1.037942 13.166292  9.875011
154  2  7.766213  3.886055 10.019803
155  2  5.990645  3.967455 10.000836
156  2  6.779306  3.789762  8.506335
157  2  4.850109  0.152274 10.967811
158  2  4.274912  1.745554 10.358404
159  2  5.155710  1.700598 11.874126
160  2  5.966878  1.020550 16.241569
161  2  5.092001 -0.382548 15.247927
162  2  6.834943 -0.028479 15.008296
163  2  7.967191 -1.826256 13.079981
164  2 -3.907985 15.537272 11.340027
165  2  6.587185 -0.985230 12.186811
166  2  8.606974  1.064446 14.290342
167  2  7.205331  1.819818 13.348908
168  2  8.873250  2.415492 13.067962
169  2  3.088560  5.833121  3.112761
170  2  3.584964  4.149697  2.526078
171  2  2.051836  4.732090  2.100339
172  2  1.964363  7.992277  9.338658
173  2  2.245961  7.988504 11.165750
174  2  0.570323  7.781015 10.464135
175  2  3.026223  5.795665  8.179566
176  2  3.201088  4.222780  9.034425
177  2  4.093460  5.659944  9.704114
178  2  6.490394  6.254093  5.583063
179  2  4.847807  5.671037  5.618369
180  2  5.508551  6.472498  7.049018
181  2  6.117272 10.425306  5.563720
182  2  7.454889  9.345791  5.053659
183  2  6.748394  9.121971  6.729197
184  2  4.806791  3.862771 13.688448
185  2  4.450338  2.623567 15.023132
186  2  6.021981  3.624428 14.959844
187  2  1.974602  4.011082 16.993139
188  2  2.070830  3.826218 15.153652
189  2  1.727733  5.389104 15.845878
190  2  2.335391  8.334433  2.999143
191  2  0.944535  7.183305  2.574718
192  2  0.699068  8.374664  4.014382
193  2 -1.687202  8.806718  2.185975
194  2 -1.016662  8.561513  0.485647
195  2 -1.527118 10.202305  0.894109
196  2  5.151942  0.921321  2.390112
197  2 -6.224791 16.721742  2.732844
198  2  5.272995 -0.058549  1.021624
199  2 12.782301 -2.703973 18.647269
200  2 11.072720 -2.835848 18.082746
201  2  0.274369 13.306376 18.774220
202  2  8.217118 -0.626177  4.083679
203  2 -2.205832 16.754346  2.675002
204  2 -3.719509 15.697309  2.796508
205  2  0.790298  5.143350 12.551140
206  2  2.611359  5.579475 12.617621
207  2  2.205056  4.038766 11.904925
208  2  3.680084  9.813733  9.522701
209  2  5.011847 10.007675 10.779261
210  2  5.395295  9.656643  9.035927
211  2  3.085497  9.456741  5.444468
212  2  3.999633  9.238469  6.950612
213  2  2.988828  7.823582  6.179699
214  2  6.688446 13.587500  8.981841
215  2  6.911337 12.118899  8.074023
216  2  7.230163 11.964222  9.824305
217  2  4.383180 11.666761  6.793988
218  2  4.100927 13.395958  7.170900
219  2  2.918179 12.242507  7.669505
220  2 -0.213926 10.944479 12.575366
221  2 -0.065238 11.384157 10.920485
222  2 -1.612420 10.902678 11.416649
223  2  4.334214  7.659032 12.606353
224  2  5.167882  9.117442 13.167307
225  2  3.394983  9.216612 12.852745
226  2  1.581963  7.843160 14.805662
227  2  2.157667  9.362694 15.551785
228  2  2.145161  7.815053 16.474252
229  2  1.810016 11.327909 11.770086
230  2  1.991683 11.178208 13.602249
231  2  3.501387 11.770410 12.629264
232  2  2.366564 13.141952 15.217316
233  2  2.011389 14.861879 14.935994
234  2  3.552473 14.277425 14.616924
235  2 -0.343075 14.882318  6.009366
236  2  0.820734 14.979347  4.762759
237  2 -0.617565 16.035490  4.727828
238  2  1.566489  1.748889 14.264614
239  2  0.256006  2.385911 13.132940
240  2  1.599841  1.289279 12.689923
241  2 10.302501 -2.294883 15.651318
242  2 10.673680 -1.436370 14.190058
243  2  9.102086 -1.045631 15.192714
244  2 13.222000  0.604945 17.031450
245  2 12.899665 -1.172072 16.515943
246  2 12.257599 -0.473831 18.037675
247  2 10.341746  9.521047  4.664540
248  2 -4.565021 10.064107  3.918417
249  2 -6.109949 10.338214  3.069004
250  2 -3.880707 12.921739  3.543195
251  2 -5.001725 14.093544  4.266220
252  2 -5.531050 13.189791  2.754441
253  2 -7.528585 13.141660  5.967111
254  2  8.485570 11.519551  5.734241
255  2  8.430550 12.593596  4.414768
256  2  7.954295  8.005797  1.288861
257  2  7.612131  7.115829  2.853787
258  2  7.954037  8.883669  2.641950
259  2  9.297616  2.742794  8.492438
260  2  8.941265  1.163922  7.876271
261  2  9.598251  2.382207  6.775959
262  2 12.084109  3.160258  6.655768
263  2 13.546626  2.411407  7.350247
264  2 12.611964  3.573863  8.409994
265  2 -1.531464  5.950055 11.635434
266  2 -2.260045  6.751499 10.195583
267  2 13.513262  5.032989 10.763674
268  2  7.880975  3.338238 16.034803
269  2  9.303218  3.422773 17.090606
270  2  9.483149  3.733806 15.339009
271  2 10.433476  6.539739 16.042315
272  2 10.022879  6.048010 17.785461
273  2  9.331262  7.572331 17.094926
274  2 10.835829  4.619882 10.438594
275  2 10.062447  3.253353 10.995793
276  2 11.819133  3.281680 10.900391
277  2  7.378827 11.094436  2.799513
278  2  7.187934 12.622715  1.644364
279  2  7.565030 10.970681  0.921715
280  2  4.755470 11.054041  3.991470
281  2  3.189471 11.320000  3.174171
282  2  4.438712 12.620895  3.359528
283  2 -0.069982 14.194042  2.976607
284  2 -1.459349 13.856279  3.924990
285  2 -1.408033 13.137760  2.196116
286  2 -2.032278 10.743088  3.584886
287  2 -1.885169 11.074351  5.380616
288  2 -0.961322  9.742718  4.669235
289  2  2.774806 15.029807  0.231556
290  2  4.104929 14.771357  1.540511
291  2  2.490469 13.821578  1.562484
292  2  4.342844 14.584941  5.097228
293  2  5.270911 15.653334  3.940389
294  2  3.634891 16.266223  4.751867
295  2  0.561896 12.854748  5.968613
296  2  2.051772 12.870439  4.726889
297  2  1.795753 11.418494  5.504375
298  2 -9.056164 15.021620  5.386062
299  2  6.827645 14.333020  6.868920
300  2 -8.779777 15.954112  6.961316
301  2  0.253719  0.886706  5.294792
302  2  2.001157  0.573372  5.064927
303  2  1.331741  1.069293  6.683938
304  2  9.319748  8.231380 13.139513
305  2  7.645587  8.136209 12.535741
306  2  9.003464  7.337888 11.556559
307  2  7.847509 11.668819 15.039095
308  2  8.352428  9.878622 14.800028
309  2  9.254702 11.215398 14.030429
310  2  5.361764 11.293768 15.102195
311  2  5.491081 12.263766 16.625993
312  2  3.870253 11.759300 16.203634
313  2 15.890542  1.320749 15.898649
314  2 16.610020 -0.301113 16.375094
315  2 14.880193 -0.203920 15.754983
316  2  0.671791 13.113021  0.251462
317  2  3.965654  8.466157 18.372144
318  2  3.047997  9.931207 17.939831
319  2  3.626431 -1.817258 12.633584
320  2  2.693439 -0.739204 11.530455
321  2 -8.777869 15.136020 11.016450
322  2  5.806549  5.641038 12.868707
323  2  6.829135  4.221577 12.422686
324  2  6.856862  5.733904 11.321247
325  2  5.353902 13.001397 13.524876
326  2  6.791378 13.578466 14.213157
327  2  6.874719 12.833602 12.648983
328  3 11.527838  1.704698  3.748083
329  3 14.357169  2.748800  4.124056
330  3  1.202364  1.196176  2.074047
331  3 19.947212 -2.958658 18.450831
332  3 -5.930177 16.306697  6.616706
333  3  7.022078  1.355119  5.810487
334  3  4.214855  1.551022  7.025731
335  3  0.868978  1.285465 10.065814
336  3 -6.773563 14.299496 14.625563
337  3 13.698717  0.202199  2.418657
338  3 12.761322  3.237265  0.456914
339  3  2.269743  1.231436 17.326669
340  3 -1.769007  5.543570  1.227639
341  3 -5.842424 13.047980  8.710096
342  3 10.056930 10.135796  8.184636
343  3  0.886790  3.698768  7.126579
344  3 -2.635140  7.997884 13.443183
345  3 11.984759  8.148074 10.893067
346  3 -3.434137 11.178726  8.626714
347  3 -1.288684  6.374802  5.156948
348  3 -3.492160  7.064585  7.261043
349  3 -0.605976  7.970511  7.592320
350  3 13.115712  5.793144 16.643083
351  3 -1.103408  4.558405 14.925289
352  3 14.947310  3.737126 17.817387
353  3 -2.373224 11.975992 18.000490
354  3 -1.423046  9.317256 16.852102
355  3  0.150102 11.676398 16.130393
356  3 11.108713  9.695273 16.167952
357  3 -4.397742 11.511085 13.062891
358  3  6.236893  3.917912  3.374176
359  3  8.377374  4.538972  1.380883
360  3 -2.214258 15.170005  8.469902
361  3  0.372467 13.546713  9.066726
362  3  6.834257  3.445224  9.560824
363  3  5.078598  1.232348 10.871282
364  3  6.014285 -0.011857 15.753105
365  3  7.641484 -1.323528 12.115447
366  3  8.295523  1.536888 13.289564
367  3  3.094299  5.144840  2.332646
368  3  1.645333  7.598312 10.301126
369  3  3.155998  5.289370  9.127573
370  3  5.520093  6.428437  5.946077
371  3  6.532444  9.309088  5.649731
372  3  4.928476  3.590789 14.744439
373  3  2.289043  4.504930 16.011328
374  3  1.235993  8.184124  3.042149
375  3 -1.104877  9.205819  1.314965
376  3  5.691456  0.032072  2.043999
377  3 -3.681501 17.522679  0.062161
378  3 -3.341571 16.739765  2.970410
379  3  1.791499  5.049112 12.013473
380  3  4.689489 10.215519  9.675381
381  3  3.665352  8.736713  5.980445
382  3  6.551676 12.458196  9.047383
383  3  3.910523 12.347301  7.513069
384  3 -0.717177 11.448472 11.758255
385  3  4.198318  8.546340 13.241488
386  3  2.247998  8.258698 15.484178
387  3  2.367400 11.720721 12.704384
388  3  2.513547 13.999201 14.571477
389  3  0.165837 15.583326  5.370475
390  3  0.891309  1.492211 13.429474
391  3 10.203872 -1.297030 15.220133
392  3 12.509884 -0.221188 17.001966
393  3 -5.637458 10.277507  4.070909
394  3 -4.961485 13.136135  3.733998
395  3 -7.424893 12.299948  5.267749
396  3  7.416307  8.002508  2.236681
397  3  9.629121  2.013503  7.815424
398  3 12.552795  2.815818  7.596827
399  3 -2.439701  6.061561 11.008375
400  3  8.833020  3.894259 16.217907
401  3  9.685468  6.579855 16.892667
402  3 10.903806  3.827482 11.153356
403  3  7.029812 11.542663  1.774508
404  3  4.221660 11.581218  3.191073
405  3 -0.788521 13.418960  3.133794
406  3 -1.323850 10.776993  4.469418
407  3  3.276442 14.329672  0.942185
408  3  4.598150 15.659818  4.887457
409  3  1.232745 12.296825  5.168404
410  3 -9.409635 15.279903  6.397170
411  3  1.149333  0.441532  5.783632
412  3  8.658414  7.602782 12.583817
413  3  8.718951 10.951665 14.863879
414  3  4.999666 11.433206 16.087387
415  3 15.895610  0.198430 15.690193
416  3  4.064547  9.498270 18.169509
417  3  2.784720 -1.770029 11.873000
418  3  6.782905  5.355568 12.383812
419  3  6.255970 13.497715 13.304400
420  4 -0.832745  2.815539  0.745748
421  4 -1.032356  3.042474  8.991043
422  4 -1.427737  5.268928  7.737112
423  4 -5.927641 12.456473 16.511624
424  4 -2.505053 11.430853 15.186141
425  4 -4.045657 13.498215 15.062570
426  4  5.849220  3.240040  0.794576
427  4  6.479573  0.773373  8.542956
428  4  6.410461 -2.632532 16.915390
429  4  7.849487 -0.581021 17.823584
430  4  5.293267 -0.728458 18.387168
431  4  7.952575  1.140791 10.562166
432  4  7.978098  1.868567 18.530270
433  4  2.650163  7.042620  0.247143
434  4  0.362753  5.154788  9.604393
435  4  4.731624  4.924619 17.211173
436  4  1.598909  9.449661  0.553630
437  4  7.676120  1.977794  2.121185
438  4 -1.488658 13.997002 11.022272
439  4 -2.216751 13.221210 13.358298
440  4  4.320193  6.276445 15.034964
441  4  0.247821 13.716899 12.903262
442  4 14.957301  0.462080  8.906158
443  4 11.540837 -1.477712 10.242345
444  4 10.171505  0.150459 11.675811
445  4 13.502467  0.437610  5.295731
446  4  2.150919 16.268796  7.185172
447  4  9.843112  0.871374 17.083470
448  4 14.714395  1.768430 11.076170
449  4 12.757102  0.136735 11.750930
450  4 15.000758  0.103332 13.035848
451  4 -5.007566 11.809366  6.362802
452  4  5.052090  6.916766  1.199845
453  4  5.084814  7.938675  3.553712
454  4 11.522598  1.079069  9.695100
455  4 11.655129  0.177416  7.278508
456  4 11.371569  1.297212 14.913834
457  4 13.381292  2.118068 13.397360
458  4 13.095179  2.999524 15.725499
459  4  7.103269  5.868366 17.412118
460  4 11.835257  6.044299 12.836406
461  4 11.397136  3.673775 13.929206
462  4  5.153992  9.490466  1.536943
463  4  0.721911 10.977138  2.609273
464  4  9.060697 10.636742 17.729309
465  4  4.460672 11.709026  0.461233
466  4  4.052222 12.991243 10.222814
467  4  2.999864 15.363165  9.443262
468  4  2.547209 14.334453 11.836942
469  4  4.643189 16.244586  7.632321
470  4  7.837060  6.147351 14.928294
471  4  9.432974  4.953366 13.175382
472  4  5.024003  8.555753 15.888884
473  4  6.765086  9.520243 17.493247
474  4  4.885169 15.178153 11.362187
475  4 17.066636 -1.335168 13.690326

