Generated by pymatgen.io.lammps.data.LammpsData

419  atoms

  4  atom types

0.000000 16.718200  xlo xhi
0.000000 13.841638  ylo yhi
0.000000 18.245594  zlo zhi
-8.112692 -2.037639 -2.009777  xy xz yz

Masses

1  28.08550
2   1.00794
3  12.01070
4  15.99940

Atoms

1    1 -6.149051 12.888023  3.042818
2    1 -1.563887  1.442004  4.330409
3    1  0.583259  1.192769  1.071564
4    1  1.530426  0.324005  9.012594
5    1 -2.385129  2.479903  9.590067
6    1  0.841290  1.566723  6.231600
7    1  3.768160 -0.263153 13.442076
8    1 13.520841 -1.411913 16.895603
9    1 -1.916698  1.817241 12.642919
10   1 -0.821849  3.777317  2.364264
11   1 12.273360  6.145512  3.895799
12   1 -2.391643  5.465045  0.227887
13   1 -0.542148  4.032731  7.510981
14   1 -4.884098  6.766636  9.891849
15   1 -2.105873  6.153624  5.953355
16   1 -4.715746  6.825370 14.944236
17   1 -2.188765  6.752775 11.305700
18   1 -3.405924  8.027501  1.679689
19   1  9.463496 10.580384  4.691125
20   1 -4.518160 10.921032  0.991648
21   1 -3.155694  8.293690  7.895963
22   1 -6.612053 11.373984 10.303834
23   1 -4.589187 10.430383  6.171025
24   1 -3.147693  8.911141 13.377487
25   1 -3.881962 11.206874 11.552015
26   1  3.594239  1.015355  4.825960
27   1 -0.308723 12.575238  8.178223
28   1  6.088608  0.828007  6.514224
29   1  4.481785  2.996316  2.685204
30   1  0.406248  6.260837  3.926999
31   1  3.385312  7.184729  0.050723
32   1  5.241487  3.483712  7.656034
33   1  0.406311  6.419293  9.422390
34   1  2.085136  8.597143  2.448194
35   1  1.395340 10.834923  0.442638
36   1  2.470465  8.369548  8.349549
37   1 -1.533424 10.354188  9.737856
38   1  1.604529 10.765088  6.608189
39   1 -1.823851  9.809471 16.067800
40   1  0.704962 10.147429 11.778261
41   1  5.328518 13.161813  2.651997
42   1  8.206370  0.539283  4.346465
43   1 13.000862 -0.290370  9.360172
44   1  8.167073  0.785359 10.431189
45   1 10.279704  5.443060  7.742153
46   1  9.422584  6.054974  2.801429
47   1  3.917272  4.722918 16.651112
48   1  9.460312  7.148679 11.643426
49   1  3.783363 10.713813  4.315448
50   1  6.512485 11.062653  0.723803
51   1  6.510750 10.271416  5.828555
52   2 13.713110  2.860832  5.878001
53   2 13.944255  1.310255  6.544330
54   2 12.759793  1.523842  5.213496
55   2 -0.228086 -1.283232 17.278030
56   2  2.883931  0.957408  0.422386
57   2  0.113548  0.381278 17.871924
58   2  0.760965  2.328293 10.115722
59   2  1.212943  0.816885 11.206809
60   2 -0.336529  0.751780 10.343975
61   2 12.073140  2.940399  8.685450
62   2 -3.555393  4.353967  8.874657
63   2 12.247655  3.618780 10.298908
64   2  5.932904  0.836814 13.825599
65   2  5.744848 -1.038149 14.256377
66   2  5.203793  0.292413 15.422818
67   2 -5.535797 11.674652 14.675296
68   2  1.531311 -0.709422 14.441205
69   2  2.834803 -0.657562 15.714565
70   2 13.859268  0.287079 15.052798
71   2 -1.676597  0.291120 16.317947
72   2 -3.270438  1.108714 16.569554
73   2 11.222095 -0.524196 16.609877
74   2 11.222613 -1.909177 17.648963
75   2  3.135744 11.669963 15.924207
76   2 -9.487974 11.616086 15.430664
77   2  5.678117 10.960282 14.966861
78   2  6.495779 10.261439 16.268501
79   2  3.193172  1.630441 12.095734
80   2  3.922341  2.058167 13.721599
81   2  2.277108  1.586259 13.536041
82   2 -0.761648 -0.283301 13.496813
83   2 -1.202271 -0.446127 11.809643
84   2 14.406902 -0.683973 13.060379
85   2 12.495565  1.176269 13.402848
86   2 12.610976  2.926081 12.817712
87   2 -3.538676  2.523129 14.411282
88   2  0.044056  3.287522 13.209445
89   2 -0.338776  1.970273 14.344868
90   2 -1.263551  3.585372 14.413472
91   2 13.461512  4.167648  3.446228
92   2 12.149646  4.594648  2.118131
93   2 11.773344  3.873508  3.794354
94   2 -3.373117  3.630463 16.302438
95   2 -2.216619  2.830986 17.507377
96   2 -2.325852  4.560618 17.540219
97   2 -2.579624  6.907879 16.061232
98   2 -3.876458  6.012131 17.105974
99   2 -3.870781  7.741544 16.995041
100  2 10.586221  3.274763 16.574845
101  2 10.157151  2.491945 18.097257
102  2 11.246131  1.553635 17.187350
103  2 -6.446635  6.961080 16.712964
104  2  9.680041  5.982134 15.469527
105  2 -7.051907  7.713585 15.357681
106  2 -3.485390  4.918160 14.526777
107  2 -4.518454  5.492524 13.114933
108  2 -5.061857  4.368209 14.606145
109  2 -1.635914  5.922471 13.501740
110  2 -0.499000  5.218316 12.115987
111  2 -2.188562  4.668991 12.488744
112  2 -1.728491  9.558624  2.903969
113  2 -1.207174  9.069328  1.186146
114  2 -1.289590  7.926478  2.525190
115  2  9.427081  9.261958  2.581387
116  2  9.963430  8.451016  4.195757
117  2 -5.557183  9.467687  3.314860
118  2 -6.242085  9.362194 16.854915
119  2 -7.352536 10.438947 17.572332
120  2 -8.059577  8.785895 17.285328
121  2 -6.891963 10.899416 12.585263
122  2 -8.553501 11.402882 12.069643
123  2  0.871049 -1.271024 12.296618
124  2 -6.835654  9.186676  9.542811
125  2 -7.306597 10.302437  8.258686
126  2  8.174763 10.038961  9.634039
127  2 -3.183019 11.890485  7.091333
128  2 -4.477067 11.472457  8.332945
129  2 -4.842227 12.649510  7.030210
130  2  3.655986  0.772584  8.037732
131  2  3.803905 -0.358726  9.481870
132  2  3.583940  1.401040  9.760116
133  2 -3.652117 11.701345  4.275855
134  2 -3.629079  9.921964  3.985932
135  2 -2.347441 10.731244  5.055672
136  2  4.528651  2.560221  0.304701
137  2  5.051169  1.029504  1.334848
138  2  6.112667  2.398459  0.969023
139  2  6.382972  4.359305  3.407730
140  2  4.996149  5.359378  3.354817
141  2  5.817890  4.955407  1.858861
142  2  2.636083  5.878764  4.853510
143  2  1.472331  4.555020  5.125552
144  2  1.457513  6.007551  6.156063
145  2  2.244661  3.390804  3.452979
146  2  2.296175  3.415846  1.521683
147  2  2.793615  4.757169  2.518804
148  2  3.656527  4.770937  0.121881
149  2  0.652422  3.321495 17.050325
150  2  1.831828  5.359274  0.339915
151  2  0.286802  5.491300 16.187126
152  2  0.851683  7.045853 16.644543
153  2 -0.640013  6.280954 17.407391
154  2  5.763598  5.400129  9.280439
155  2  6.724146  3.881982  9.690053
156  2  4.895520  3.975256  9.967933
157  2  2.877109  3.033980  8.422714
158  2  2.987646  3.565205  6.639754
159  2  3.157041  4.677486  7.994672
160  2  5.150677  4.198103  5.348696
161  2  6.814687  4.060388  5.888948
162  2  5.992784  5.530121  6.341074
163  2  2.612558  5.790662 10.237420
164  2  1.496672  4.546557 10.659806
165  2  1.587287  6.069437 11.682471
166  2  0.907471 13.193709  0.725080
167  2  1.683676 12.498855  2.207899
168  2 -0.034591 12.252793  1.839338
169  2  1.163328  9.104517 17.091925
170  2  3.570694 10.063695  0.226245
171  2  3.523605 11.829862  0.530582
172  2  2.814708  7.785492  5.965215
173  2  3.638174  6.533879  7.052652
174  2  4.315683  8.141013  6.762547
175  2  4.189079  9.313786  9.740958
176  2  4.405159  7.567405  9.474390
177  2  3.129472  8.074415 10.592845
178  2  0.683373  8.676147  5.828737
179  2  0.259812  9.893592  4.651897
180  2 -0.607158  9.828580  6.231053
181  2 -0.720223 11.884721 15.348011
182  2  0.429876 10.539093 15.338706
183  2 -0.030379 11.215442 16.937932
184  2 -3.175222 11.101574 17.678886
185  2 -4.215549 10.224634 16.361372
186  2 -3.196545 11.771995 16.102467
187  2 -2.067194 11.257834  0.782736
188  2 -2.757264 12.162185  2.198229
189  2 -3.047844 12.682931  0.548098
190  2  0.840763  8.992406 13.869936
191  2  2.174559  8.360397 12.912407
192  2  0.380806  7.904246 12.595116
193  2 -0.487116 12.194163 12.017278
194  2  0.465399 12.024445 13.419817
195  2 -1.109318 11.011575 13.174231
196  2  2.139312 11.521080 10.171006
197  2  3.158238 10.279412 11.192030
198  2  2.462765 11.945861 11.784647
199  2 11.898574  1.365226  2.858537
200  2 11.671245  0.332489  1.373346
201  2 12.976204  1.449917  1.399802
202  2  0.634266 11.986889  4.058550
203  2 -1.086189 12.402274  3.581063
204  2 -0.730466 12.379897  5.303447
205  2 10.715575  0.307087  4.465244
206  2 10.181312  0.941198  6.031993
207  2 10.207441  1.995428  4.588949
208  2  7.460686  2.120241  2.684292
209  2  7.207138  0.449858  2.168854
210  2  8.939162  1.164455  2.139113
211  2  3.271669 12.293313  8.005802
212  2 12.090897 -0.084505  7.043894
213  2 10.764568  0.081340  8.267626
214  2 12.032288  1.152592 10.980198
215  2 12.501426 -0.428331 11.764941
216  2 11.004811 -0.177519 10.595034
217  2  8.236486  2.088822  8.484749
218  2  9.892931  1.866079  9.226432
219  2  8.749770  3.124529  9.956803
220  2  9.791329  1.679038 12.021475
221  2  9.413245 -0.014810 12.259397
222  2  8.282644  1.181382 12.929193
223  2  5.896908 -0.006746 11.136928
224  2  5.820629  1.168211  9.900972
225  2  6.148654  1.848766 11.548731
226  2  8.274417  5.009546  8.974825
227  2  8.537307  4.061017  7.438911
228  2  7.901014  5.677988  7.276890
229  2 10.684559  4.235676  5.502689
230  2 10.668359  3.104738  6.904498
231  2 12.072437  4.305996  6.725326
232  2 10.162981  7.711668  1.037262
233  2  9.089277  6.353471  0.300140
234  2 10.688474  6.083201  0.669066
235  2  9.256033  6.867632  6.088555
236  2 11.034352  7.327826  6.345270
237  2  9.674533  7.870486  7.610055
238  2  9.769634  3.768470  2.202061
239  2  8.181956  4.351963  1.852110
240  2  8.713384  3.867117  3.552052
241  2  7.130658  6.707224  2.827520
242  2  7.948867  7.904358  3.890873
243  2  7.524911  6.178505  4.424374
244  2  3.543918  4.623180 14.066988
245  2  2.338863  5.753764 14.780756
246  2  2.127237  3.993610 14.909387
247  2  4.994116  2.702229 15.998467
248  2  3.498453  2.345187 16.859841
249  2  4.930615  2.865706 17.820472
250  2  6.300798  5.009470 16.366845
251  2  5.660480  6.316684 17.385862
252  2  5.391612  6.367434 15.520250
253  2  7.186982  7.963599 10.929111
254  2  7.466230  6.273061 10.472241
255  2  8.335192  7.560620  9.486979
256  2  8.459957  5.010304 12.144632
257  2  9.942635  5.289514 13.199957
258  2 10.095023  4.709263 11.557672
259  2  8.401842  9.227869 12.557895
260  2 -6.814443  8.812527 13.501192
261  2  8.285510  7.809044 13.659199
262  2  8.897364 11.941929  0.269670
263  2  8.698288 10.098583  0.222414
264  2  8.693952 10.971412  1.761977
265  2  6.260037  8.634692  1.257851
266  2  4.962335  9.654108  2.059745
267  2  6.538278  9.663676  2.818579
268  2  4.835663  8.609307 16.543645
269  2  3.521018  9.594666 16.570284
270  2  3.336669  7.816876 17.021132
271  2  6.415400  7.875837  6.500905
272  2  6.261720  8.927873  7.996861
273  2  7.829393  8.725856  7.144245
274  2  6.429866 12.698565  5.607236
275  2  7.281164 12.314875  7.043529
276  2  5.564636 12.070350  7.156104
277  2  6.850823 12.186311  9.601744
278  2  5.543250 11.060525  8.981394
279  2  5.712997 11.546356 10.724395
280  3 13.812564  1.812510  5.574759
281  3  0.004177 -0.680544 18.144878
282  3  0.726427  1.205459 10.305476
283  3 12.762027  3.424425  9.406881
284  3  5.325197  0.016886 14.308925
285  3  2.610495 -1.053125 14.683872
286  3 -2.737374  0.221816 16.160488
287  3 11.667588 -1.548939 16.747266
288  3  6.331861 11.152810 15.851590
289  3  3.233346  1.481780 13.132449
290  3 -1.503143 -0.043544 12.784140
291  3 -3.599762  2.116668 13.392813
292  3 -0.787630  2.752185 13.778160
293  3 12.500797  4.531152  3.199730
294  3 -2.920429  3.652969 17.347181
295  3 -3.614467  6.888246 16.405343
296  3 10.978346  2.613762 17.412318
297  3 -6.459261  6.874383 15.649064
298  3 -4.455404  5.225490 14.166974
299  3 -1.523664  5.575131 12.518302
300  3 -1.784001  8.753668  2.116671
301  3 10.093519  9.320529  3.516108
302  3 -7.104438  9.366069 17.546058
303  3 -7.443289 11.594108 11.939552
304  3 -7.430340 10.024319  9.349772
305  3 -4.199940 11.761650  7.329802
306  3  3.380268  0.553758  9.034123
307  3 -3.411379 10.732466  4.701525
308  3  5.055169  2.133526  1.182679
309  3  5.494167  4.549966  2.793948
310  3  1.616022  5.608504  5.149454
311  3  2.761780  3.679540  2.495450
312  3  0.765004  3.482988 18.107475
313  3  0.360677  6.144237 17.062732
314  3  5.700812  4.280221  9.291569
315  3  3.366916  3.707227  7.671360
316  3  5.836808  4.447499  6.178323
317  3  1.615513  5.589664 10.625869
318  3  0.901236 12.338310  1.407283
319  3  1.054403  9.002242 18.218955
320  3  3.352770  7.584624  6.904133
321  3  3.667017  8.343823  9.673814
322  3  0.313662  9.697262  5.719264
323  3 -0.354615 11.002681 15.944095
324  3 -3.301996 10.819665 16.606592
325  3 -2.939847 11.786918  1.151662
326  3  1.089056  8.678357 12.902189
327  3 -0.130558 11.408117 12.718274
328  3  2.282340 11.026271 11.167216
329  3 12.352851  0.758793  2.063394
330  3 -0.262123 12.595310  4.369455
331  3  9.974205  0.976339  4.950212
332  3  7.974546  1.162565  2.680278
333  3 11.674435 -0.473362  8.026967
334  3 12.051815  0.072426 10.826571
335  3  8.834314  2.185793  9.420200
336  3  9.009867  0.953504 12.119088
337  3  6.298593  0.964090 10.856858
338  3  8.538197  5.017392  7.919683
339  3 10.998074  4.152169  6.606365
340  3  9.852541  6.671608  1.014637
341  3 10.050045  7.083057  6.884792
342  3  9.005915  4.275134  2.613681
343  3  7.873620  6.802975  3.559168
344  3  2.885279  4.800874 14.931829
345  3  4.388649  2.982220 16.903448
346  3  5.484698  5.741219 16.477961
347  3  7.934993  7.245734 10.527343
348  3  9.495570  5.359296 12.230934
349  3  9.018306  8.343942 12.970063
350  3  8.369991 11.038003  0.730189
351  3  6.023189  9.613385  1.819998
352  3  3.910430  8.792481 17.184065
353  3  6.750420  8.809955  6.976385
354  3  6.431653 12.029576  6.510940
355  3  5.828873 11.925374  9.692424
356  4  1.085675  0.147779  2.254791
357  4 -0.278137  1.066062  5.167335
358  4  0.953624  0.663571  7.514448
359  4 16.162878  0.554481  0.153445
360  4 -1.914935  2.378724 11.146963
361  4 -1.452339  2.842043  3.541652
362  4  0.145573  2.720767  1.506174
363  4 -1.944885  4.535355  1.456363
364  4 -1.224014  3.144400  8.699499
365  4  0.403753  3.037241  6.675333
366  4 -3.563510  6.206948  5.288303
367  4 -1.633398  4.743690  6.590673
368  4 -3.572485  6.239120 10.688634
369  4 -3.904422  7.270217  2.997934
370  4 -3.046588  6.874319  0.596813
371  4 -7.071693 12.052814  4.036838
372  4 -4.361386  9.303654  1.237781
373  4 -5.530221 11.758565  2.029822
374  4 -4.331601  7.707146  8.772482
375  4 -2.235011  7.194093  7.159754
376  4 -6.862862 12.661911  9.389365
377  4 -6.225600 10.355496  5.871980
378  4 -3.899890  9.098387  6.769298
379  4 -4.342660  8.038184 14.036883
380  4 -2.364211  8.095404 12.224366
381  4 -5.089013 10.994321 10.485925
382  4 -3.805693 10.226731 12.786147
383  4  4.028195 -1.157541 12.128394
384  4  3.128135 -0.157262  3.797638
385  4  2.250730  1.624507  5.582604
386  4  4.659362  0.521537  5.888583
387  4  6.669626 -0.376024  7.397129
388  4  4.338361  2.131477  3.984655
389  4  0.066467  5.078286  2.869485
390  4 -0.954716  6.629057  4.844023
391  4  5.776461  1.997937  7.496567
392  4  0.244813  5.322605  8.217451
393  4 -1.034387  6.865124 10.128677
394  4  0.980650  7.633228  3.229653
395  4  3.088215  7.743068  1.550146
396  4  1.221877  9.530355  1.430272
397  4  1.114641  7.667854  8.695668
398  4 -2.246142  9.115099  8.972453
399  4 -1.007206 11.287026  8.640384
400  4 -2.579821 11.165377 10.634444
401  4  2.152578  9.878822  7.858377
402  4  0.848037 12.107099  7.129101
403  4 -2.078412  9.229147 14.610889
404  4 -1.527621  8.787043 17.317623
405  4 -0.223229  9.790966 10.576059
406  4 14.642071  0.128707  3.440754
407  4  7.114059  1.177715  5.317313
408  4 13.965534  1.015075  9.036860
409  4  8.383508 -0.522595  9.472930
410  4 11.016538  5.661970  9.114951
411  4 10.687290  6.214503  3.828655
412  4  2.903731  5.244291 17.821384
413  4 -5.888852  7.540517 10.885869
414  4  3.029571  9.583750  3.353175
415  4  4.334244 12.098101  3.532712
416  4  2.702713 11.117114  5.486997
417  4  5.895760 12.415873  1.390497
418  4  7.901354 10.305494  5.022830
419  4  5.121499 10.032519  4.943826

