Generated by pymatgen.io.lammps.data.LammpsData

447  atoms

  4  atom types

0.000000 18.092200  xlo xhi
0.000000 13.533701  ylo yhi
0.000000 18.163624  zlo zhi
-10.505308 -0.154688 0.234756  xy xz yz

Masses

1  28.08550
2   1.00794
3  12.01070
4  15.99940

Atoms

1    1 -7.662455 13.491638  1.153935
2    1  0.677977  1.958020 17.672843
3    1 16.174641  1.904174 11.087803
4    1  1.914944  0.433656 13.238558
5    1 16.173321  2.179536 15.995069
6    1  0.740700  3.080743 12.141475
7    1 12.415449  6.982547  4.217594
8    1 -3.371946  6.854358  0.069022
9    1 -1.033254  5.593765  7.352090
10   1 -4.503706  6.419127 10.112053
11   1 -3.132053  7.293398  5.870665
12   1 -1.014568  4.563316 14.179978
13   1 12.429741  6.578322 16.115131
14   1 -2.804793  6.168584 12.423556
15   1 -4.706973  9.098201  1.981833
16   1 -5.493715 11.465996  0.113159
17   1 -3.835703  8.877700  8.387417
18   1 -4.489671  8.216204 13.908250
19   1  3.405510  1.828103  3.631272
20   1  6.285723  3.280315 17.027671
21   1 -0.315304 13.353296  8.188525
22   1  2.554223  2.881412  9.703190
23   1  5.496505  2.826901  5.506484
24   1  9.111768  1.254492 11.847224
25   1  4.901498  5.831705 18.055188
26   1  2.280598  7.930677  4.109702
27   1  4.297460  4.521778  7.814173
28   1  4.197980  7.157378  6.383243
29   1 -0.808033  6.970982 16.506194
30   1 -3.670144 11.283914  3.826349
31   1  0.340946 12.488367  0.471891
32   1  3.942881  9.472381  8.335832
33   1 -1.589644 10.681554  9.440907
34   1  0.939528  9.302490 15.117948
35   1 -2.647507 12.099803 17.654498
36   1  6.654795 12.572498  5.023150
37   1  7.996067  3.489796  3.811273
38   1 11.461972  1.975399 10.074999
39   1 13.379681  2.566039  5.867759
40   1  3.855715 13.538900 14.580486
41   1 13.471647  2.111546 12.472779
42   1 10.463536  5.115113  2.810276
43   1  9.532523  7.715821 16.082981
44   1 12.349416  4.364126  8.140028
45   1  6.616562  5.194393  9.729709
46   1 10.657473  6.601995  6.784295
47   1 12.046877  4.041698 14.397579
48   1  8.483177 10.235602  4.978831
49   1  4.702637 12.001842  0.200526
50   1  2.205817 11.810529 16.508555
51   1  5.025244 10.858025 13.764939
52   2 -8.428651 11.983272  3.004627
53   2 -8.621282 11.309410  1.348649
54   2  8.342593 12.397929  1.788754
55   2  0.939881  3.511348  1.091271
56   2  0.553969  1.909337  1.885021
57   2 -0.760129  2.920987  1.058213
58   2  0.981682  3.609140 16.081891
59   2  2.240140  2.381053 15.817066
60   2  2.462563  3.679249 17.035118
61   2  5.266474 13.118881 11.423285
62   2  6.768152 13.532450 12.322203
63   2  6.709980 13.354505 10.533449
64   2  3.964115  0.464540 14.643877
65   2  3.762872  2.019579 13.744596
66   2  4.395852  0.537933 12.877283
67   2 -8.863393 11.958987 14.686017
68   2  7.779493 13.056333 14.730518
69   2 -8.757701 13.578023 15.586569
70   2 -7.825164 11.876836 12.308943
71   2 -7.995292 13.213604 10.992989
72   2 -9.450236 12.270886 11.530087
73   2 14.920005  3.001679 18.139467
74   2 14.364038  3.747780 16.484034
75   2 -2.222675  4.262655 17.346806
76   2 -2.301707  6.345194  2.328758
77   2 -2.430813  4.811773  1.298518
78   2 -3.890188  5.537748  2.065022
79   2 15.426897  0.893463  8.898178
80   2 -1.672875  2.294509  8.597388
81   2 14.683693  2.546245  9.289241
82   2 -0.077061  4.347071  5.354455
83   2 -1.082973  3.374162  6.414302
84   2  0.685977  4.023579  6.974650
85   2  0.636221  7.004560  6.339650
86   2  0.991586  6.646748  8.131673
87   2 -0.129856  8.047754  7.586946
88   2 -0.210088  4.936062  9.501392
89   2 -2.011074  4.456324  9.409666
90   2 -1.491867  6.136906  9.553703
91   2 12.149276  6.499629 12.078810
92   2 11.298573  5.763884 10.682028
93   2 11.482398  7.541997 10.791009
94   2 -1.745561  8.236651 11.532085
95   2 -0.479141  6.839659 11.664861
96   2 -0.952994  7.586849 13.057103
97   2 -5.753448 11.897323 15.862656
98   2 -7.161225 11.093788 16.383226
99   2 -5.763856 10.051037 16.353438
100  2 -5.581262 10.329990  9.559334
101  2 -5.928113  9.922394  7.782205
102  2 -4.907083 11.239143  8.247194
103  2 -6.485859  8.640143 12.530903
104  2 -5.077232  9.417024 11.811987
105  2 -5.729113 10.175086 13.281061
106  2  2.680118  1.158708  5.849777
107  2 -7.210936 13.134357  4.945228
108  2  1.734016  0.415833  4.466799
109  2  5.567694  0.960241 17.405293
110  2  4.257323  2.268249 17.665215
111  2  5.753065  1.651399  0.692397
112  2  5.981817  2.520183 14.634069
113  2  6.701720  4.095218 14.831689
114  2  4.875667  3.901721 15.043840
115  2  8.192819  1.947838 17.754216
116  2  8.766780  3.665938 17.492115
117  2  8.324993  2.656586 16.130207
118  2  1.575571 12.979465  6.688755
119  2  0.030757 13.125354  5.777486
120  2  0.376968 11.603698  6.735980
121  2  0.891744  2.106788  8.104609
122  2  0.915393  1.210580  9.727166
123  2  2.190642  1.066906  8.317669
124  2  8.573646  0.839600  6.667867
125  2  9.621976  2.058173  7.453080
126  2  8.293683  1.468079  8.341281
127  2  6.329120  0.413480  5.918254
128  2  4.781892  0.667300  6.645707
129  2  6.126796  1.441957  7.388236
130  2  4.625021  2.476976 11.207320
131  2  5.007386  2.169870  9.393682
132  2  4.132761  0.969633 10.372701
133  2  7.895305  0.252906 10.185616
134  2  7.104969  1.741091 10.731614
135  2  6.873029  0.219951 11.646334
136  2  0.528627 13.613518 12.971552
137  2 -0.106744 12.604116 11.584760
138  2 -0.982160 12.559926 13.108143
139  2  8.180534  3.059380 12.991169
140  2  9.444440  2.146431 14.061915
141  2  7.771761  1.539587 13.832145
142  2  2.229153  3.833002  4.690211
143  2  1.078523  2.771281  3.967480
144  2  2.061888  3.776444  2.879661
145  2  3.941633  3.726975  1.156841
146  2  2.950432  5.312609  0.970301
147  2  4.215159  5.363282  2.147485
148  2  3.269866  5.507954 16.210308
149  2  4.608198  6.611078 15.633795
150  2  3.308225  7.118625 16.746317
151  2  5.220524  8.079718  0.426482
152  2  6.502319  7.642043 17.966367
153  2  6.243582  7.083626  1.504130
154  2  0.561214  7.267639  2.537277
155  2  0.567511  6.053791  3.834886
156  2  1.927205  6.052929  2.721093
157  2  3.026473  8.890001  2.145306
158  2  4.334689  7.724245  2.650799
159  2  4.139553  9.228650  3.603663
160  2  0.957573  9.254869  5.621823
161  2  0.332856  9.439446  3.944594
162  2  1.916593 10.313460  4.374527
163  2 -2.266120  8.450638  3.994181
164  2 -0.922130  7.620581  4.860586
165  2 -1.637661  9.146272  5.690664
166  2  5.474335  6.185460  4.566880
167  2  6.316842  6.180056  6.065016
168  2  6.263243  7.587771  5.044583
169  2  1.119984  5.869655 17.515001
170  2 -0.083088  5.436861  0.384887
171  2  0.743438  7.109257  0.230678
172  2 -1.093813 11.174470  4.238118
173  2 -1.929787 12.698302  4.746337
174  2 -1.820380 12.378673  3.000449
175  2 -5.841807 12.144754  3.236940
176  2 -4.460977 12.925822  2.318405
177  2 -4.873618 13.404851  3.926067
178  2 -4.965954  9.866124  5.355181
179  2 -4.928361 11.523961  5.906992
180  2 -3.402153 10.666684  6.101888
181  2  0.375526 10.142078  1.491415
182  2  0.710699 11.367743  2.710194
183  2  1.864562 11.022022  1.563343
184  2 12.082568  0.486038  1.982378
185  2 10.417841  1.073072  1.538096
186  2 11.855966  1.261827  0.309871
187  2  3.871772  8.026270 10.427373
188  2  2.424957  7.757169  9.418203
189  2  2.594311  9.221391 10.277705
190  2  2.339219 11.235167  8.368890
191  2  1.675010  9.725136  7.661417
192  2  2.554357 10.639986  6.643527
193  2  5.675137 11.248630  8.154014
194  2  6.039468 10.062880  9.510474
195  2  4.895248 11.377047  9.744240
196  2  0.144982  9.011820  9.539354
197  2 -0.023476  9.622439 11.056017
198  2  0.944031 10.651785  9.860123
199  2 -3.050572  9.993061 11.249822
200  2 -3.574709 11.603041 10.591028
201  2 -2.139299 11.336850 11.639432
202  2  1.898236  8.253752 12.907616
203  2  1.236149  7.092563 14.038665
204  2  2.815825  7.779979 14.345449
205  2 -0.815133 10.936869 14.849489
206  2 -0.592075 10.059164 13.317206
207  2  0.598443 11.275633 13.730247
208  2 -2.708814  9.924221 13.473413
209  2 -2.400448  8.906700 14.882547
210  2 -3.627816 10.166650 14.973910
211  2 -1.810775  9.650706  0.248115
212  2 -1.404082 10.253970 16.735237
213  2 -3.230410  9.739293 17.123394
214  2 -2.711664 12.308590 15.169896
215  2  8.579698  0.247477 15.975089
216  2 -3.726090 13.546832 15.958560
217  2  4.622560 11.929535  6.187257
218  2  5.015685 10.684774  4.915077
219  2  4.271848 12.219619  4.411581
220  2  6.544832 13.479798  7.400224
221  2  0.401896  0.480187  6.514021
222  2  8.033997 12.453138  7.180807
223  2  6.325500  3.325028  2.193803
224  2  7.673002  4.291459  1.522838
225  2  6.512902  5.044060  2.694937
226  2 14.956880  2.478388  4.017975
227  2 -2.848560  3.806522  5.123050
228  2 13.872451  3.803939  3.813271
229  2  8.334646  1.388784  2.279353
230  2  7.677180  1.085112  3.967117
231  2  9.287918  1.366681  3.846692
232  2 11.125995  1.737934  5.796194
233  2 11.698314  1.705483  4.259188
234  2 11.348140  3.360923  4.981556
235  2 13.809885  0.858287  7.401677
236  2 15.330391  1.035057  6.282798
237  2 13.835669  0.391302  5.605476
238  2 11.831326  3.163137  2.128777
239  2 11.777178  4.427260  0.857141
240  2 10.282251  3.411484  1.102895
241  2 10.215335  7.340787  1.882660
242  2  8.558390  6.497649  2.030148
243  2  9.501790  6.050621  0.772862
244  2  8.004848  6.231043 17.256170
245  2  8.203591  5.667964 15.543340
246  2  7.206045  7.050484 15.892990
247  2  8.815921  9.830200 16.889991
248  2 10.268590  9.345241 17.912603
249  2  8.773656  8.406276  0.080102
250  2 10.230200  9.308351 14.157819
251  2  8.553344  8.706920 14.064094
252  2  9.763826  7.621090 13.580760
253  2  9.172965  5.296179  9.678306
254  2  8.527407  3.739690  9.062195
255  2  8.417498  4.029463 10.822614
256  2  5.960420  7.514466 10.022143
257  2  6.597165  7.305994  8.353088
258  2  7.802154  7.334234  9.836511
259  2  4.841991  4.950705 11.398764
260  2  6.345509  5.802126 12.028315
261  2  6.317881  3.955769 11.864298
262  2  8.256742  6.238353  7.308498
263  2  9.090947  4.977473  6.370346
264  2  8.598111  6.629367  5.572237
265  2 10.062609  8.619757  7.990178
266  2 11.619607  7.884137  8.561243
267  2  9.990598  7.131499  9.030228
268  2 12.424238  2.524121 16.153456
269  2 11.317271  1.742236 15.186788
270  2 10.701324  2.982684 16.209037
271  2 10.679499  5.787393 13.317751
272  2  9.688230  4.491534 14.060643
273  2 10.630066  4.104748 12.542891
274  2  8.927837  9.435929  2.688216
275  2  7.411891  8.689073  3.363722
276  2  9.043525  8.121729  3.875936
277  2 -7.205250 10.699233  4.431743
278  2 -7.343178  9.762662  5.905176
279  2 -7.769024 11.483844  6.007255
280  2  8.059843  8.532627  6.725264
281  2  6.642574  9.498909  6.388328
282  2  7.936502 10.105430  7.472697
283  2  6.988545 12.416873 17.914419
284  2  6.021042 12.327110 16.393398
285  2  6.325839 10.908048 17.384042
286  2  4.139804 11.261989  2.444097
287  2  5.981120 11.550522  2.244661
288  2  5.361329 10.036193  1.665423
289  2 14.059817  0.758354 17.983986
290  2 15.671770  0.725460  0.862772
291  2 14.225762  0.119198  1.630912
292  2 -0.895599  1.418834  4.321671
293  2 16.061591  0.519633  3.314680
294  2 17.842864  0.249620  3.083094
295  2  6.852619  9.444733 12.657503
296  2  7.573434 10.998121 13.232564
297  2  6.483117 10.979072 11.779655
298  2  3.673541  9.646071 12.214311
299  2  3.602205 11.397605 11.921332
300  2  2.641014 10.733356 13.155732
301  2  6.166001  9.467860 15.535893
302  2  5.095496  8.577631 14.531989
303  2  4.359034  9.716376 15.737691
304  3 -8.719864 12.185936  1.920622
305  3  0.309830  2.609215  1.093087
306  3  1.776177  3.024712 16.549786
307  3 16.686062  0.167306 11.426554
308  3  3.687305  0.876871 13.698279
309  3 -9.208520 13.023920 14.735785
310  3 -8.465891 12.670878 11.870655
311  3 15.213282  3.385926 17.136108
312  3 -2.894173  5.767173  1.533192
313  3 15.625872  1.930551  9.296143
314  3 -0.277783  4.115753  6.441366
315  3  0.255439  7.005339  7.373705
316  3 -1.234372  5.175283  9.130672
317  3 11.988432  6.575393 11.008791
318  3 -1.382109  7.300768 12.074451
319  3 -6.089929 11.137197 16.569040
320  3 -5.188880 10.192616  8.532544
321  3 -5.550024  9.202893 12.773206
322  3  2.739284  0.598134  4.885833
323  3  5.295993  1.933568 17.791452
324  3  5.906067  3.446595 15.233287
325  3  8.051402  2.880044 17.147188
326  3  0.532177 12.690009  6.691116
327  3  1.489968  1.666789  8.909439
328  3  9.043019  1.157850  7.594938
329  3  5.757351  1.184462  6.460256
330  3  4.221088  2.047676 10.190701
331  3  7.586164  0.839202 10.993170
332  3 -0.399342 13.230961 12.440630
333  3  8.601540  2.090017 13.351535
334  3  2.138554  3.162256  3.788387
335  3  3.910506  4.876973  1.149394
336  3  3.965449  6.291051 16.506375
337  3  5.842677  7.180526  0.530196
338  3  1.211386  6.737222  3.246929
339  3  3.632568  8.505857  2.968118
340  3  1.270666  9.357331  4.565064
341  3 -1.837547  8.286931  5.003352
342  3  5.686297  6.731662  5.403133
343  3  0.283279  6.404603 17.930767
344  3 -1.949529 11.892033  3.987279
345  3 -4.858721 12.578876  3.275810
346  3 -4.288782 10.780208  5.440369
347  3  0.810599 11.132768  1.639812
348  3 11.366891  0.664498  1.140857
349  3  3.140413  8.477379  9.717721
350  3  2.517934 10.417908  7.701922
351  3  5.245535 10.639519  9.005343
352  3  0.021817  9.984664 10.034676
353  3 -2.714176 10.956904 10.849859
354  3  1.831176  8.058596 13.986172
355  3 -0.119514 10.522804 14.173984
356  3 -3.160530  9.409080 14.317840
357  3 -2.274896 10.337123 17.399299
358  3 -2.783857 13.019780 16.038480
359  3  4.958126 11.762957  5.120871
360  3  7.313994 13.182294  6.675132
361  3  7.040711  4.125381  2.432291
362  3 14.455919  3.290769  4.558888
363  3  8.320669  1.683397  3.325215
364  3 11.762056  2.288631  5.126865
365  3 14.166624  1.037703  6.393233
366  3 11.208227  3.852887  1.568974
367  3  9.648883  6.388068  1.823991
368  3  8.133106  6.521992 16.207039
369  3  9.279753  9.009070 17.452337
370  3  9.565187  8.429660 14.318930
371  3  8.405311  4.567680  9.847409
372  3  6.810799  7.005195  9.456891
373  3  5.972141  4.937723 11.389137
374  3  8.926591  6.080919  6.467885
375  3 10.579198  7.654658  8.303501
376  3 11.519755  2.731005 15.594925
377  3 10.573625  4.658273 13.485038
378  3  8.452806  9.010809  3.576236
379  3 -7.779887 10.564114  5.401499
380  3  7.736478  9.542913  6.515474
381  3  6.108826 11.936024 17.380591
382  3  5.014332 11.117642  1.778400
383  3 14.828400  0.136052  0.704567
384  3 17.059737  0.463971  3.814361
385  3  6.598472 10.582396 12.816072
386  3  3.609688 10.559450 12.674214
387  3  5.152157  9.563123 15.053104
388  4  1.674646  0.798520 18.159810
389  4 -0.587298  1.523018 16.738688
390  4 -0.579249  2.816817 11.302315
391  4  1.008231  1.699071 12.946487
392  4 -4.222987  6.753577  4.805550
393  4 -2.356688  6.062387  6.594304
394  4 -1.506031  3.130502 14.797723
395  4  0.267190  4.226826 13.213310
396  4 -4.831195  6.533002 17.446343
397  4 -3.518785  5.741683 11.110871
398  4 -2.232676  4.959200 13.312665
399  4 -5.590143  8.210287  3.052397
400  4 -3.864602  8.212517  0.910724
401  4 -5.606231 10.191944  1.171554
402  4 -6.396056 12.777862  0.472618
403  4 -3.897599  7.809699  9.545348
404  4 -3.872440  8.217104  6.920159
405  4 -5.224404  7.771525 15.230562
406  4 -3.878060  6.952657 13.234925
407  4  3.422970  1.046760  2.224862
408  4  1.869467  3.496511 11.042939
409  4  4.739734  2.392839  4.173819
410  4  5.995969  4.695855 17.712258
411  4  3.045376  3.932513  8.557065
412  4  4.603771  3.760786  6.390690
413  4  2.933467  7.310779  5.414395
414  4  3.930619  6.044825  7.444906
415  4 -0.735163  5.719311 15.380049
416  4 -2.291371  7.317575 17.134110
417  4 -3.770295  9.997379  2.829893
418  4  4.403003  8.530879  7.113602
419  4 -2.377855  9.666728  8.524552
420  4 -1.205885 12.136538  8.800276
421  4 -0.032304  8.362349 16.053375
422  4 -1.245445 12.525413  0.301516
423  4 -3.931880 11.875800  0.218145
424  4  6.960328  3.431898  5.101254
425  4 11.255606  0.601653  9.168634
426  4 10.157781  2.066206 10.912342
427  4 15.138427  1.058640 15.489757
428  4 14.948435  2.464794 12.013421
429  4 12.669083  1.704975 11.120497
430  4 13.580381  0.726019 13.366974
431  4  9.395559  4.348326  3.786571
432  4 11.769134  5.675326  3.515933
433  4 10.905543  6.892995 16.409382
434  4 11.661001  3.367257  9.209866
435  4 13.259723  3.547436  7.129586
436  4 13.304425  5.394153  8.955030
437  4  5.648822  4.500876  8.605380
438  4 11.421519  7.246666  5.469612
439  4 11.295681  5.223464  7.266903
440  4 12.894555  3.412649 13.255995
441  4 12.631797  5.273106 15.264892
442  4  7.744773 11.565488  4.554529
443  4  1.886235 10.306135 15.923141
444  4  3.281681 11.619855 17.640694
445  4  2.693846 12.877150 15.400937
446  4  0.885404 12.422109 17.188601
447  4  4.897868 12.403180 14.163813

