Generated by pymatgen.io.lammps.data.LammpsData

433  atoms

  4  atom types

0.000000 15.480500  xlo xhi
0.000000 15.059380  ylo yhi
0.000000 18.481182  zlo zhi
-10.174668 -1.607868 2.470711  xy xz yz

Masses

1  28.08550
2   1.00794
3  12.01070
4  15.99940

Atoms

1    1  -6.878189 14.073116  1.160064
2    1  -2.210546  4.424326  6.898656
3    1  -7.483056 14.769083  7.364012
4    1  -2.635264  4.144019  9.834946
5    1  -6.437968  9.600979 10.537046
6    1  -2.715490  6.021434 16.849109
7    1   8.596810  9.933346 15.955359
8    1  -3.909794 10.316525 12.320788
9    1  -4.159566 10.242267  1.630595
10   1  -7.944566 12.096209  3.367456
11   1  -7.104721 14.425580 18.016935
12   1   6.700549 12.936612  9.445362
13   1  -5.909548 12.929129  5.505359
14   1  -5.361531 12.153546 14.217204
15   1   5.844753 14.156498 16.239599
16   1  -6.592049 13.240032 11.612466
17   1  -0.889621 14.527683  1.184274
18   1   8.555765  1.410951  6.753394
19   1   8.824328  3.390118  4.415339
20   1   5.804976  2.326671 14.727284
21   1   3.206507  3.702025 14.085063
22   1   2.901824  4.925673  2.319758
23   1   0.160846  8.768023  4.261391
24   1   2.236915  7.129804  0.347631
25   1   2.556857  7.077489  9.028797
26   1  -1.961503 10.543420  9.886139
27   1   1.001416  8.250667 13.384072
28   1  -2.174750  8.812764 17.902906
29   1   0.902087 10.299451 11.155611
30   1   0.981563  9.707476  1.504183
31   1  -1.990033 14.305041 18.224848
32   1  -4.456979 14.596182 16.168262
33   1   6.894506  2.139337 11.955107
34   1   4.304785 13.872488  1.461677
35   1   3.140823 14.049347  6.723824
36   1   1.120858 16.411652 14.718968
37   1   6.586081  5.148391 15.842808
38   1   6.848745 10.130896 18.383786
39   1   8.264172  6.891682  9.300470
40   1   3.780110  9.679650 10.093682
41   1   7.241012  8.265276  6.860769
42   1   7.223006  7.808375 14.152335
43   1   6.343939  9.901224 12.129569
44   1   6.841119  9.616992  1.611374
45   1   2.564887 11.889373  3.069540
46   1   3.525063 13.966348 18.358837
47   1   5.549005 10.557909  7.751747
48   1   4.819088 12.018441  5.065692
49   1   5.363476 12.280572 13.897849
50   1   0.810449 14.217702 16.837096
51   1   4.758357 14.046036 11.445950
52   2 -10.262276 16.581667 17.929334
53   2   1.195800  2.758771 17.558417
54   2   1.628554  0.602325  0.272228
55   2   4.316995  1.175350  0.856972
56   2  -4.920773 15.234820  2.025353
57   2   3.602782  0.899415  2.583484
58   2   0.130004  5.089410  7.413911
59   2   0.172973  4.296032  5.780174
60   2  -0.046958  3.261162  7.302100
61   2  -1.874054  6.738096  6.663575
62   2  -3.200541  6.478977  7.703696
63   2  -3.468320  6.232043  5.956855
64   2  -5.386559 15.507896  8.264045
65   2   3.361879  1.377122  8.905342
66   2   4.146480  1.855296  7.241851
67   2   1.051844  1.378078  6.667456
68   2  -9.306174 14.883942  5.893649
69   2   2.070928  0.957483  5.240339
70   2  10.819285  2.891001 10.215104
71   2  11.462733  3.343725 11.723723
72   2  12.207865  1.953380 10.759005
73   2  -2.515806  6.628531 10.028813
74   2  -3.340323  6.045455 11.474227
75   2  11.419889  6.047047  9.894455
76   2  -0.178392  3.509602  9.736071
77   2  -0.896111  3.748893 11.370547
78   2  -0.508176  5.157038 10.332644
79   2  -5.703117  9.504191  8.326142
80   2  -4.873324 10.710669  9.156871
81   2  -6.564163 11.152340  8.610383
82   2  -1.024168  4.290014 16.561542
83   2  -0.928910  5.101810 18.209139
84   2  -0.353384  5.872070 16.742288
85   2  -2.344167  6.018919 14.365608
86   2  11.318488  5.946229 14.828931
87   2  12.407320  4.442791 15.010970
88   2  -5.325854  9.054874 17.640103
89   2  -4.974598  8.299963 16.022630
90   2   9.071257  7.801291 16.960550
91   2  10.848823  4.824201 17.765960
92   2  10.693266  6.547692 18.194724
93   2  -1.869475  3.023840  0.560349
94   2  -3.223572  8.963137 14.278561
95   2  -2.247203  8.541556 12.701007
96   2  -4.036060  7.975847 13.140860
97   2  -5.746307  8.648903  2.651680
98   2  -5.668492 10.179766  3.444153
99   2  -4.296093  9.025424  3.830225
100  2  -2.454631  9.751325  0.035484
101  2  -3.659813  8.416146  0.433014
102  2  -2.283462  8.701400  1.496606
103  2  -3.800770 12.124175  3.222933
104  2  -3.148132 12.476846  1.503814
105  2  -2.193178 11.413160  2.731334
106  2  -4.864325 10.840888  6.384324
107  2  -4.149069 12.328104  7.093632
108  2  -3.570205 11.897765  5.515894
109  2  -4.453899 14.863769  5.772043
110  2  -5.801181 15.397325  4.681653
111  2  -4.414208 14.292410  4.129620
112  2  -9.893119 15.679124 14.323286
113  2  -8.376937 16.085928 15.329586
114  2 -10.071761 16.515792 15.841515
115  2  -7.403842 15.550316 11.245430
116  2  -6.276118 15.465200 12.703964
117  2  -7.974620 14.775841 12.818178
118  2  -4.838935 14.601058 10.530762
119  2  -5.343525 13.218676  9.420598
120  2  -4.286167 12.858696 10.964516
121  2   6.932646  0.059793  0.375168
122  2   6.638388  2.563434 17.566179
123  2   8.186702  1.351460  0.387735
124  2   1.400418 15.035426  1.839432
125  2  10.878729  1.441037  1.074681
126  2  11.166441  0.006978  0.035299
127  2   8.803419  0.659992  3.366532
128  2  -1.284562 13.833129  3.440457
129  2  -2.607103 14.536012  2.807846
130  2  10.244276  2.764025  7.859492
131  2   0.652112 16.108223  8.093279
132  2   9.586963  1.580657  9.079435
133  2   7.157354  3.381467  7.583568
134  2   6.620892  1.697460  8.088844
135  2   6.297415  2.241420  6.389129
136  2  -0.840347 14.169752  6.638810
137  2  -2.188746 14.523883  5.580578
138  2  -2.507278 14.257095  7.349596
139  2   9.558725  3.297040  2.076730
140  2  10.928055  2.733051  3.149009
141  2  10.398945  4.409954  3.094119
142  2   9.289119  5.786995  5.041851
143  2   9.770124  4.543771  6.354754
144  2   8.137550  4.918532  6.243867
145  2   1.881715  2.097671 12.831854
146  2   2.744051  3.202059 11.644069
147  2   1.370861  3.732301 12.424714
148  2   3.753514  5.558615 12.478124
149  2   5.315085  4.829010 13.177822
150  2   4.339683  5.963263 14.134038
151  2   0.783002  4.018729  1.558888
152  2   1.018876  3.879125  3.300369
153  2   1.719196  2.706491  2.275588
154  2   4.570151  3.220552  1.857174
155  2   5.312071  4.748194  1.433770
156  2   4.020775  3.912875  0.309745
157  2   4.287928  5.923613  4.057544
158  2   3.692827  4.378843  4.651344
159  2   2.602686  5.932912  4.726377
160  2   0.146459  6.308458  3.630074
161  2  -1.515348  6.918548  4.182291
162  2  -0.138270  6.683335  5.299849
163  2   1.850131  8.334936  5.991784
164  2   2.192206 10.002302  5.285433
165  2   2.599519  8.405901  4.341784
166  2  -0.596037 10.673623  5.546572
167  2  -1.325578  9.305204  6.244052
168  2  -1.984700  9.873645  4.575386
169  2   2.502337  8.733989 17.341817
170  2   4.607420  7.699108 -0.000000
171  2   2.107204 10.531325 17.057946
172  2   2.173765  5.732608 10.876730
173  2   3.657945  5.197973 10.226562
174  2   1.973224  4.706828  9.461256
175  2   6.906911  4.186120  2.929267
176  2   6.399024  3.814838  4.547480
177  2   6.645912  2.479323  3.339550
178  2   2.868629  6.088467  6.860954
179  2   4.473149  6.267722  7.844707
180  2   3.751706  7.660693  7.108971
181  2   0.873155  8.777022  8.480830
182  2   0.147627  7.586370  9.680073
183  2   0.410342  7.180354  7.958736
184  2  -1.914013  8.443199  8.744741
185  2  -3.003112  9.670217  8.043934
186  2  -3.606387  8.619987  9.316918
187  2  -1.067853 12.695221  9.333921
188  2  -2.773280 12.775243  9.223958
189  2  -1.903098 11.905392  7.908098
190  2   0.948372  5.834435 12.865120
191  2  -0.716505  6.551339 12.828528
192  2   0.055304  6.326096 14.440826
193  2   1.116181  3.796749 15.363591
194  2   2.033268  5.384298 15.498689
195  2   2.618345  3.945303 16.431989
196  2   2.741062  7.515823 14.849999
197  2   3.086329  9.075402 14.338810
198  2   3.471049  7.922583 13.071370
199  2   0.025780 10.233564 14.542288
200  2   0.560065  9.087044 15.773134
201  2  -0.986097  8.764231 14.809341
202  2  -2.341673 10.329576 15.935214
203  2  -2.249867 11.237744 17.503897
204  2  -3.774082 10.445637 16.892355
205  2  -1.240162  5.211686  1.581065
206  2  -2.555963  6.343674  0.871203
207  2  -1.095892  6.972131  1.827789
208  2   0.617301 12.690049 11.666431
209  2   1.384974 11.813922 12.931653
210  2  -0.402959 11.667571 12.730208
211  2   6.127701  3.251106  9.807594
212  2   5.206432  3.782548 11.217893
213  2   4.798377  2.183224 10.515977
214  2  -2.674653 14.878284 11.864364
215  2  -1.507486 15.888568 10.929032
216  2  -2.956457 15.417312 10.288844
217  2   8.468905  3.606804 13.159895
218  2   7.687898  4.524075 11.915188
219  2   9.044412  3.395987 11.554805
220  2  13.520245  0.818142  0.418784
221  2   1.412674 16.793383 17.843581
222  2   3.037831 17.450114 17.906602
223  2   0.718368  0.599269  2.139566
224  2  -9.729289 14.546743  3.523437
225  2  14.722446  0.715422  3.100773
226  2  13.152919  2.731368  5.090826
227  2  12.381496  4.271474  4.601814
228  2  11.584174  3.107053  5.787752
229  2   2.429676 15.077395  4.489634
230  2  12.028836  0.972092  5.997328
231  2   1.086731 14.492908  5.605712
232  2  14.545202  1.025724  6.982006
233  2   4.771917 15.006110  8.361996
234  2   3.232926 15.900315  8.371975
235  2   1.922729 12.000082  7.261256
236  2   1.405504 13.285511  8.380662
237  2   3.044474 12.521095  8.523706
238  2  10.177726  3.455773 14.621017
239  2  10.938383  3.227267 16.173991
240  2   9.379490  2.520944 15.813239
241  2  12.956893  2.573771 13.235668
242  2   3.381404 15.975240 13.826881
243  2  13.448626  2.287638 14.989532
244  2   7.869294  5.961772 17.666716
245  2   8.885985  5.643480 16.334593
246  2   8.338870  4.272263 17.274730
247  2   5.478626  5.877178 17.979048
248  2   4.666681  4.415761 17.223907
249  2   4.392082  6.077480 16.647664
250  2   9.035407  5.348906  0.667725
251  2   8.855692  6.520975  2.041986
252  2  10.348504  6.575392  1.188525
253  2   5.840488  8.385248 16.994001
254  2   4.865674  9.913995 17.044085
255  2   4.928655  8.606939 18.454015
256  2   6.724463  6.566746 11.196639
257  2   6.087435  5.902855  9.680998
258  2   6.109031  7.723348  9.910534
259  2  10.040371  5.087462  8.758971
260  2   8.375149  4.402598  9.274042
261  2   9.518858  5.286656 10.506922
262  2  -6.667576 10.044204  6.309660
263  2   7.734536  9.632486  4.957947
264  2   9.163508  8.563435  5.329788
265  2   5.358757  7.618880  5.462483
266  2   6.026817  6.107575  6.277318
267  2   6.794453  6.725186  4.891969
268  2   9.390821  6.647118 14.165641
269  2   9.328876  7.861824 12.832039
270  2   8.612995  6.401620 12.581619
271  2   6.796442  7.318637  2.839264
272  2   5.293946  7.614477  1.928511
273  2   5.490371  8.638783  3.482779
274  2   1.500220 12.477135  5.108384
275  2   0.312364 11.805622  3.943515
276  2   0.849855 13.470568  3.692171
277  2   3.737324 11.031073 15.068077
278  2   3.369745 11.132231 13.253040
279  2   3.002676 12.528180 14.154922
280  2  -0.308276 12.965718 15.119640
281  2  -0.216342 11.955971 16.511827
282  2   1.262923 12.093230 15.521051
283  2   2.497927 14.139691 12.328981
284  2   2.729524 12.861838 11.069119
285  2   2.428611 14.656788 10.655880
286  2 -10.274749 16.510151 12.168749
287  2   4.194991 16.206936 10.603578
288  2  -9.474792 16.061197 10.728881
289  2   0.131177 14.531398 13.353024
290  2   0.385063 16.035353 12.512499
291  2  -0.912196 15.999492 13.468716
292  3  -9.568369 17.326934 18.401158
293  3   4.223488  0.489789  1.736307
294  3  -0.314199  4.262603  6.855964
295  3  -2.771262  6.121098  6.729922
296  3  -6.304330 16.053897  8.004570
297  3  -8.600479 15.599543  6.163844
298  3  11.728451  2.951853 10.753645
299  3  -3.169201  5.836116 10.391599
300  3  -0.821415  4.141781 10.357778
301  3  -5.843895 10.355665  8.969472
302  3  -1.107113  5.203085 17.131686
303  3  -3.098377  5.579931 15.067338
304  3  -5.749312  8.649593 16.697009
305  3  11.476748  5.730422 18.062953
306  3  -3.248769  8.771365 13.173017
307  3  -5.014498  9.383900  3.030914
308  3  -2.984631  9.147115  0.794506
309  3  -3.207602 11.680561  2.318649
310  3  -4.485351 11.879865  6.180662
311  3  -5.085045 14.563890  4.941498
312  3  -9.467880 15.771475 15.347513
313  3  -7.090332 14.957394 12.149714
314  3  -5.094882 13.507260 10.476428
315  3   8.013113  0.282351  0.136206
316  3  10.823757  0.330679  1.065440
317  3  -1.548757 14.674416  2.886761
318  3   9.955330  1.748097  8.023790
319  3   7.050007  2.321577  7.245547
320  3  -1.839893 14.645914  6.563222
321  3  10.077690  3.417579  3.076378
322  3   9.037131  4.854360  5.637685
323  3   2.231686  3.119850 12.643346
324  3   4.243191  5.124245 13.428427
325  3   1.476020  3.781700  2.360971
326  3   4.338528  4.142492  1.369456
327  3   3.416756  5.349552  4.151058
328  3  -0.416113  6.938305  4.322194
329  3   1.867782  8.923480  5.045732
330  3  -1.090197  9.742527  5.274160
331  3   2.252578  9.759803 17.794421
332  3   2.605482  5.504189  9.938625
333  3   7.051300  3.425619  3.747060
334  3   3.509873  6.680262  7.518514
335  3   0.802573  7.724270  8.824764
336  3  -2.718046  9.183471  8.932510
337  3  -1.929402 12.127211  8.988323
338  3   0.260535  6.544413 13.396270
339  3   2.138034  4.273285 15.490187
340  3   2.783233  8.120413 13.923722
341  3   0.050532  9.159266 14.737449
342  3  -2.677300 10.389936 16.930796
343  3  -1.452367  6.193876  1.111458
344  3   0.596268 11.775115 12.223454
345  3   5.641977  2.861873 10.765473
346  3  -2.526150 15.666118 11.200336
347  3   8.136846  3.542835 12.126058
348  3   3.749563 14.866124  0.021069
349  3   5.234122 15.081626  2.647984
350  3  12.516959  3.535313  5.446220
351  3   2.025145 15.031150  5.560803
352  3   3.986359 15.389219  7.735668
353  3   2.268100 12.862904  7.808115
354  3  10.350091  2.775919 15.424764
355  3   2.816501 16.933753 14.071202
356  3   8.059625  5.275015 16.837281
357  3   5.167408  5.337513 17.014146
358  3   9.222851  6.408402  1.037718
359  3   5.426957  9.211918 17.675957
360  3   6.628851  6.711073 10.092019
361  3   9.117052  5.255883  9.442036
362  3   8.369422  9.198232  5.699597
363  3   6.292528  7.042437  5.791633
364  3   8.820495  7.141874 13.382039
365  3   6.053344  8.151054  2.597715
366  3   1.129281 12.469529  4.066969
367  3   3.694533 11.673087 14.164902
368  3   0.347991 12.641945 15.875520
369  3   2.906281 13.922399 11.327671
370  3 -10.385691 15.889964 11.217708
371  3   0.099161 15.626954 13.430645
372  4  12.690483  3.938094  8.278830
373  4  -5.319652  9.930201 11.650167
374  4  -7.789098 13.258343  2.265793
375  4  -5.083961 10.793974  0.491230
376  4  -5.800356 13.162645  0.500101
377  4  -8.286689 14.213130  8.636072
378  4  -6.701703 12.173541  4.349177
379  4  -6.845891 13.484586  6.657107
380  4  -6.085644 11.114242 15.262130
381  4  -4.131490 11.480997 13.399411
382  4  -8.387937 14.038073 17.202284
383  4  -7.796116 12.648279 10.698387
384  4  -6.407163 12.446014 13.050302
385  4   9.002508  2.043666  5.323320
386  4   4.224788  2.648790 14.739667
387  4   2.491351  6.363600  1.676982
388  4  -2.780988 10.732802 11.277956
389  4  -2.524848  7.579028 16.966279
390  4  -0.584807  8.876146 18.053712
391  4  -0.376851 10.231599 10.189600
392  4   1.006120  8.966869 11.949932
393  4   0.117026  9.161183  2.717843
394  4   1.703058  8.561179  0.700067
395  4   0.040326 10.548109  0.607661
396  4  -0.818593 12.969293  0.826848
397  4  -4.843972 13.510804 14.960332
398  4  -3.238962 14.007092 17.147395
399  4  -4.068493 16.158351 15.726007
400  4  -5.819817 14.838548 17.063121
401  4   6.234076  1.805512 13.344337
402  4   6.546338  3.714288 15.061054
403  4   7.812835 10.547829 17.193783
404  4   8.934021  8.043044 10.189784
405  4   3.426621  8.133882  9.867842
406  4   2.338593 10.380378 10.394556
407  4   8.127984  7.297351  7.799798
408  4   6.541792  6.490904 14.874949
409  4   7.582774  9.055867 15.111878
410  4   7.603086 10.086191 11.153209
411  4   4.901283  9.963224 11.310299
412  4   6.448587  8.484246 12.906518
413  4   7.922779  8.951909  0.657930
414  4   7.522502 10.678950  2.608064
415  4   2.170847 10.617091  2.129587
416  4   3.091237 13.112137  2.173572
417  4   4.459800 14.107787 17.029855
418  4   5.653775 10.307420  0.744792
419  4   5.236846 12.773075  0.788592
420  4   4.259023 10.382485  8.702604
421  4   6.335658  9.251149  7.672463
422  4   6.459438 11.657025  8.458652
423  4   6.192501 12.317590  4.204469
424  4   3.692739 11.447767  4.106519
425  4   5.001469 10.893871  6.230931
426  4   4.281333 13.331758  5.816952
427  4   6.269617 11.113125 13.208131
428  4   5.908746 12.938139 15.211861
429  4   1.965066 13.754028 17.947815
430  4   1.346928 15.282316 15.764079
431  4  -0.545572 14.738036 17.508702
432  4   5.331293 13.274294 10.179065
433  4   5.294924 13.460026 12.818733

