Generated by pymatgen.io.lammps.data.LammpsData

461  atoms

  4  atom types

0.000000 16.321500  xlo xhi
0.000000 15.396667  ylo yhi
0.000000 19.153874  zlo zhi
-9.257140 0.057702 -4.765549  xy xz yz

Masses

1  28.08550
2   1.00794
3  12.01070
4  15.99940

Atoms

1    1 -5.741387 14.571241  2.436373
2    1 14.692719  0.701503  4.465343
3    1  2.271376 -1.610888  7.984484
4    1 -2.354453  3.676603 10.532332
5    1  1.186282  0.643828  6.197811
6    1 -7.020585  9.342298 14.627622
7    1 14.523166 -2.564863 18.399978
8    1 -0.943154  3.584321  3.832499
9    1 10.082640  5.484962  1.351306
10   1 -0.893418  6.208819  9.751046
11   1 -5.192366  6.585673  8.555078
12   1 -1.309818  8.512903  7.736250
13   1 -7.011301 12.135677  3.759906
14   1 -4.334448  8.800711 19.124377
15   1 -4.154322  9.435934  7.977589
16   1  7.607970 11.370247  8.708309
17   1 -5.327066 11.755050  6.356596
18   1  7.039034  8.134473 16.356451
19   1 -0.502843 13.780981  3.128019
20   1  4.018863  1.256283  4.770272
21   1  3.098526 -0.291588 10.521223
22   1  6.749526  1.142748  6.474776
23   1 11.394254 -3.302025 14.610767
24   1  2.376532 -3.091659 15.385350
25   1  4.853105  3.782264  3.234323
26   1  3.566571  6.226135  1.915771
27   1  5.696738  3.736942  7.839872
28   1  0.649675  7.024036 12.237027
29   1  4.850077  6.325256  6.659228
30   1  4.673409 -1.179033 15.599873
31   1  2.055361  8.822379  2.546125
32   1  1.323680  4.706248 18.948736
33   1 -3.575239 10.722089 10.656833
34   1  2.884528 11.925781  6.489716
35   1  4.435996 14.152238  2.226829
36   1  9.482412  0.832215  4.792108
37   1 12.105903  1.089571  0.833768
38   1 12.839301  1.051873  9.419301
39   1 12.122609  1.389714  6.407929
40   1 10.434112 -3.608270 17.438837
41   1 -3.172038  3.841111 13.501183
42   1  9.931463  2.640847  2.357076
43   1 10.757805  3.957499  7.109344
44   1  6.297833  4.415977 10.707974
45   1 10.797922  7.562019  3.530634
46   1  7.576935  2.547527 12.736752
47   1  8.100926 10.696448  1.384634
48   1  3.516314 11.430278  3.562812
49   1  6.086262 12.640243  0.125458
50   1  3.632686  6.489509 18.121289
51   1  5.248494 11.222587 10.624846
52   2  2.335850  0.985472  1.143869
53   2  1.152611  0.125321  2.313213
54   2 -7.523477 14.784744  0.693945
55   2  0.046957  3.685167 11.443482
56   2 -0.213509  2.485771 10.140827
57   2 -0.902528  2.131124 11.780974
58   2  8.411580  7.723177 13.026742
59   2 -7.053475  9.004696 12.150260
60   2  7.586733  9.307394 12.933079
61   2 -5.482355  7.653352 15.347042
62   2 -4.535884  9.226008 15.190938
63   2 -4.993137  8.117166 13.784852
64   2 -0.471071  2.348694  1.248450
65   2  0.499929 -1.742913 19.090284
66   2  0.177210  1.218893  0.154955
67   2 13.097307 -0.918177 17.108432
68   2 -1.381034 -0.728014 16.905401
69   2 -2.156376 -0.197240 18.452268
70   2 15.524439 -4.117664 16.810398
71   2 13.869007 -3.703397 16.276579
72   2  4.892153 10.451769 17.557207
73   2  1.381761  3.089696  4.712811
74   2  1.230004  4.729499  3.817750
75   2  1.422325  3.090223  2.917327
76   2 -1.425754  5.794417  2.945483
77   2 -2.757605  4.686695  2.689012
78   2 -1.408120  4.582165  1.534225
79   2 -0.686694  4.956136  5.788109
80   2 -1.161646  3.401874  6.283045
81   2 -2.448492  4.546023  5.630090
82   2  8.033962  6.706023  0.949266
83   2  7.884274  4.970519  0.547609
84   2  8.698232  1.346881 18.644764
85   2  1.484261  1.713097  8.509875
86   2 -0.151281  1.806035  7.791030
87   2  1.073984  2.928310  7.161634
88   2  1.572124  5.602079  9.463738
89   2  0.734054  6.207125  8.040605
90   2  0.467164  4.475777  8.657551
91   2 -5.395702  7.178225 10.972489
92   2 -3.708315  6.942202 10.417984
93   2 11.348210  5.504415 10.691693
94   2 12.296071  5.848998  0.576915
95   2 11.331729  0.722285 18.282565
96   2 11.871362  4.157622  0.233677
97   2 -1.691675  8.155115  5.424186
98   2 -2.146615  6.730520  6.416548
99   2 -0.424162  7.105336  6.052433
100  2  0.287049  9.999712  8.696242
101  2  0.663853  9.945739  6.930446
102  2  1.209436  8.709381  8.048075
103  2  7.462026 13.480801  3.179160
104  2 -7.879165 14.195087  4.462470
105  2  7.145536 12.784794  4.797088
106  2 -2.608041 12.352428  1.047717
107  2 -3.014769  6.855739 18.531182
108  2 -4.080691 11.283139  0.734551
109  2 -2.515546 10.357131 18.449970
110  2 -3.993346 10.470596 17.310123
111  2 -2.724834  9.086384 17.264536
112  2 -6.737697 10.469439  9.560848
113  2  8.259368  9.374037  9.883591
114  2 -7.842144 10.878073 10.904301
115  2  7.007240  9.463822  7.391480
116  2  8.640847 10.122097  6.901716
117  2  7.227787 10.971048  6.310819
118  2 -3.400855 11.972030  4.787702
119  2 -2.835520 12.267818  6.332846
120  2 -3.809770 13.617612  5.741374
121  2  7.166832  5.749243 17.051928
122  2  8.642107  6.410736 16.403187
123  2  7.329332  6.118062 15.270043
124  2 -5.641332  7.342537 17.585172
125  2 -6.267339  9.002880 17.430600
126  2 -6.732669  8.193607 18.785929
127  2  5.815457  8.212363 14.116980
128  2  5.749272  9.712798 14.992504
129  2  4.762717  8.268717 15.487057
130  2  6.984227 -0.499836  2.203270
131  2  6.763896 -0.558064  3.949720
132  2 -2.960242 13.284933  3.057341
133  2  0.415123 11.640268  3.996073
134  2 -1.202269 11.416325  3.394258
135  2 -0.884508 12.145511  5.064476
136  2  5.078376  0.240468 11.848204
137  2  5.409217  1.145533 10.467401
138  2  5.655185 -0.652581 10.489428
139  2  1.730485 -1.845249 11.833072
140  2  3.574521 -1.807645 12.397920
141  2  3.100470 -2.636209 10.960039
142  2  7.391634 -1.042399  7.187874
143  2  6.002333 -0.506184  8.094044
144  2  7.811952  0.163646  8.470609
145  2 11.644559 -0.851705 14.409268
146  2 12.373189 -1.639489 13.010461
147  2 13.306510 -1.776986 14.465964
148  2  9.050889 -2.539238 14.513465
149  2 -0.067506 11.210205 14.187083
150  2  9.480142 -3.110652 12.840949
151  2  2.600329 10.603299 12.963534
152  2  2.275718  9.711392 14.506187
153  2  3.955874 10.523557 14.245694
154  2  1.626001 -4.077164 17.531924
155  2  2.410024 -2.491911 17.789927
156  2  3.408167 -3.912149 17.436155
157  2  0.680954 -1.804596 13.782362
158  2  0.943662 -1.038415 15.310075
159  2 -0.039758 -2.541295 15.132519
160  2  5.723338  3.326664  1.169344
161  2  3.781694  2.853716  1.281203
162  2  5.102147  1.776113  1.807168
163  2  7.096367  3.121086  3.636746
164  2  6.795128  4.602524  4.600378
165  2  6.977228  4.754129  2.731726
166  2  2.243847  1.397337 19.119589
167  2  1.081403  5.553305  1.243086
168  2  2.309289  4.399517  0.741063
169  2  4.991690  7.680564  0.615989
170  2  4.987950  5.887033  0.049034
171  2  5.955002  6.445986  1.521009
172  2  2.170691  1.982833 10.503793
173  2  2.188211  1.357362 12.141449
174  2  0.994456  0.705700 10.974021
175  2  4.063528  2.336793  9.026072
176  2  3.591364  2.529555  7.342255
177  2  3.470801  3.902110  8.333851
178  2  2.415595  5.712726 13.374959
179  2  1.874885  4.870091 11.671222
180  2  0.799561  4.869229 13.106039
181  2  1.423966  9.310801 11.507839
182  2  1.724056  8.057837 10.254027
183  2  2.831263  8.171401 11.749370
184  2 -0.222292  8.707918 13.732945
185  2  0.731808  7.474781 14.624749
186  2 -0.853202  7.080634 14.038066
187  2  2.756069  5.420757  6.702324
188  2  2.977791  6.065074  5.014293
189  2  2.595585  7.132157  6.370387
190  2  4.510530  8.221413  8.225248
191  2  5.683338  6.961456  8.847366
192  2  3.918752  6.641194  8.943327
193  2  5.309285  8.381208  5.610170
194  2  6.088829  7.041635  4.636387
195  2  7.006398  7.585466  6.050326
196  2  6.487058 -2.276254 14.902672
197  2  6.915374 -0.467709 15.076972
198  2  6.032255 -1.082787 13.563242
199  2  3.191569  0.645597 14.684126
200  2  4.634441  1.199442 15.739122
201  2  3.097286  0.589290 16.501446
202  2  5.763679 -2.507287 17.509514
203  2  4.522416 -1.371689 18.010388
204  2  6.067682 -0.745893 17.636313
205  2  1.430744  8.800544  4.810304
206  2  0.513134  7.559228  4.068474
207  2 -0.037413  9.283448  3.789594
208  2 -0.178470  6.320958 17.850070
209  2 -0.557566 11.063317  0.447243
210  2 -1.168252  4.966105 18.442691
211  2 -0.512170 13.716919  0.626140
212  2  0.827406 12.709830  1.363756
213  2  0.892914 14.564597  1.362798
214  2  2.376417  3.267294 17.298247
215  2  0.875612  3.930008 16.689154
216  2  0.750727  2.532352 17.976103
217  2 -1.715887 10.195548 12.140683
218  2 -1.415561  9.729735 10.327769
219  2 -2.354519  8.686954 11.458231
220  2 -2.084524 11.950512  9.159574
221  2  6.998234 -2.557573 10.649554
222  2 -3.583023 12.862074  9.541694
223  2 -4.334283 11.688634 12.664542
224  2 -4.510885  9.911511 12.724110
225  2 -5.650945 10.978786 11.779250
226  2  1.001372 11.918820  8.126031
227  2  0.647309 12.736156  6.602149
228  2 10.881715 -1.844753  7.856345
229  2  3.130810  9.519202  6.512317
230  2  3.115713 10.205175  8.107452
231  2  4.692476 10.310286  7.324825
232  2  4.573329 13.626915  5.720688
233  2  5.244842 12.560295  7.058969
234  2 13.219826 -1.519244  7.452773
235  2 11.054521  1.182588 11.357481
236  2 11.579111 -0.454534 10.998538
237  2 10.418748  0.322458  9.954269
238  2 14.324386 -0.064649 11.091817
239  2 -1.046723  0.310579  9.575022
240  2 14.256138 -1.122667  9.651637
241  2  8.477292 -2.196336 17.785139
242  2  9.841099 -1.181439 16.972823
243  2  9.978706 -1.690577 18.671388
244  2 -0.975202 10.970086 16.713479
245  2 -0.289504  9.971025 18.041992
246  2  0.375354  9.765215 16.357983
247  2 13.035767  1.388545 13.885601
248  2 11.384819  2.011584 13.678548
249  2 12.229269  2.220088 15.334400
250  2 -1.705635  3.792829 15.394544
251  2 -1.174086  4.899661 14.199725
252  2 -0.900653  3.044288 14.024275
253  2 -4.569871  5.123352 15.037707
254  2 -5.044041  5.535407 13.227474
255  2 -3.520210  6.138102 14.139965
256  2  8.673670  1.079519  0.831470
257  2  7.893973  2.735358  0.977805
258  2  7.740537  1.484029  2.249048
259  2  8.886100  3.584501  8.801588
260  2 10.490333  2.979344  9.307442
261  2  9.535366  2.149729  7.996934
262  2  6.797610  6.254522 12.326093
263  2  7.179971  6.772949 10.496132
264  2  8.264540  5.817107 11.500561
265  2  4.145629  3.301551 11.307681
266  2  3.919910  4.961763 10.620823
267  2  4.444371  4.700280 12.283188
268  2  9.402446  7.667550  5.488351
269  2  8.564119  6.762708  4.296406
270  2  8.519341  8.492625  4.025570
271  2  8.756854  5.253888  6.382263
272  2  8.722390  3.559768  5.697320
273  2  9.706268  4.864570  4.927143
274  2 -4.366785  6.685728  5.714750
275  2 -3.338495  6.743385  4.284339
276  2 11.781905  5.457702  4.366892
277  2 -4.500463  9.750893  4.135513
278  2 -5.308680  9.667758  2.444226
279  2 -3.642172  9.032723  2.705676
280  2  8.719875  5.911799  8.924365
281  2  8.864184  7.161827  7.708477
282  2  9.094666  7.642320  9.242702
283  2  8.255608  4.634635 13.821819
284  2  9.679455  3.976243 12.906072
285  2  9.021853  3.253472 14.442213
286  2  8.662833  0.984605 11.312853
287  2  7.530342  0.197163 12.586011
288  2  9.273446  0.775291 12.968514
289  2  5.764895  1.475304 13.696553
290  2  5.432484  3.227188 13.677782
291  2  6.492826  2.424723 14.954387
292  2  5.855220  9.790461  1.400914
293  2  7.068098  8.672784  2.310723
294  2  7.110300  8.830101  0.576915
295  2 -5.948124 10.504638  0.281753
296  2  9.004956  5.334547 18.394423
297  2  9.500930  8.984859  0.497618
298  2  5.826020 11.421270  3.325496
299  2  5.270862  9.725802  3.704168
300  2  5.417930 10.998537  5.076543
301  2  3.422424  5.777636 15.588764
302  2  4.320621  4.563863 16.642227
303  2  5.060234  6.087595 16.072591
304  2  2.375736  8.493725 18.640359
305  2  1.894186  7.915162 17.101154
306  2  3.470543  8.880079 17.160531
307  2  3.349991 12.522823  9.616203
308  2  3.113655 12.256286 11.389851
309  2  2.783196 10.897807 10.272989
310  2  4.677580  8.980134 10.406108
311  2  4.923430  9.316383 12.126509
312  2  6.372280  9.015425 11.053892
313  2 15.429525 -2.147912 11.550744
314  2  6.945084 11.804467 12.171138
315  2  5.282361 12.154806 12.836735
316  3  2.011666  0.028216  1.586515
317  3 -0.690141  2.950751 11.044316
318  3  8.583744  8.792919 13.015058
319  3 -5.298711  8.540011 14.741971
320  3 -0.279664  2.268337  0.214332
321  3 14.095043 -0.947073 17.631141
322  3 14.485962 -3.970969 17.189262
323  3  0.942503  3.646523  3.784231
324  3 -1.690372  4.736730  2.570833
325  3 -1.423122  4.153521  5.512677
326  3  8.523729  5.848478  0.504130
327  3  0.901490  1.892453  7.592213
328  3  0.635262  5.549065  8.932984
329  3 -4.724956  6.539927 10.366460
330  3 11.526741  5.201831  0.204563
331  3 -1.370623  7.525336  6.220221
332  3  0.335390  9.422293  7.838723
333  3 -8.409069 13.216081  4.077285
334  3 -3.426257 12.050753  0.334427
335  3 -3.323516  9.785318 17.904084
336  3  8.555532 10.429362  9.939137
337  3  7.639224 10.364493  7.196685
338  3 -3.700857 12.512530  5.695213
339  3  7.557046  6.417737 16.280985
340  3 -5.865330  8.293690 18.161512
341  3  5.745220  8.601247 15.117770
342  3 -2.263920 14.172011  3.037230
343  3 -0.561234 12.101468  4.005075
344  3  4.971211  0.171743 10.788994
345  3  2.788715 -1.838222 11.580816
346  3  7.032834 -0.139239  7.718245
347  3 12.252151 -1.734969 14.089782
348  3  9.626253 -3.259353 13.941722
349  3  2.865520 10.569112 14.024850
350  3  2.449242 -3.406032 17.190985
351  3  0.910556 -2.019261 14.863598
352  3  4.870097  2.826179  1.636315
353  3  6.620235  4.116267  3.620274
354  3  2.139593  5.462822  0.822084
355  3  5.049717  6.616802  0.894486
356  3  2.023362  1.045264 11.122272
357  3  4.077106  2.982913  8.142695
358  3  1.592247  5.468623 12.620871
359  3  1.808729  8.241623 11.353268
360  3  0.019010  7.625635 13.808028
361  3  3.113436  6.223052  6.057604
362  3  4.705589  7.134497  8.326381
363  3  5.955424  7.463307  5.634112
364  3  6.194839 -1.190819 14.673209
365  3  3.815705  0.529536 15.640096
366  3  5.355423 -1.508132 17.319891
367  3  0.799389  8.620494  3.908923
368  3 -0.287637  5.646925 18.715059
369  3  0.271013 13.655695  1.427921
370  3  1.331561  3.439009 17.584598
371  3 -2.149210  9.746624 11.167092
372  3 -2.833412 12.240410  9.957333
373  3 -4.657178 10.839873 12.150069
374  3  1.408749 12.605853  7.369070
375  3  3.567853 10.266746  7.157611
376  3  4.328834 13.136774  6.701175
377  3 11.335490  0.536668 10.490002
378  3 14.306999 -0.039858 10.000812
379  3  9.655997 -2.023772 17.678835
380  3 -0.036880 10.496061 17.066677
381  3 12.347076  2.186427 14.189956
382  3 -1.501633  3.882645 14.316947
383  3 -4.231709  5.307287 14.042855
384  3  8.428594  1.884933  1.515838
385  3  9.824351  3.082311  8.469077
386  3  7.155302  5.960038 11.320898
387  3  4.533472  4.328673 11.292167
388  3  9.145948  7.689445  4.433739
389  3  9.360215  4.426147  5.909545
390  3 -4.357341  6.509852  4.575669
391  3 -4.606732  9.210135  3.136830
392  3  9.321170  6.804361  8.630353
393  3  8.812144  3.715056 13.487392
394  3  8.353160  0.903528 12.375127
395  3  6.205423  2.460186 13.871236
396  3  6.906376  9.347206  1.479445
397  3  9.359132 10.032814  0.248617
398  3  5.228040 10.789452  4.001627
399  3  4.141631  5.636324 16.456243
400  3  2.777113  8.147838 17.660447
401  3  3.484854 11.780733 10.459548
402  3  5.342956  9.456881 11.119973
403  3  5.977070 12.245793 11.986495
404  4 -0.174296  0.456421  5.241841
405  4  1.606952 -0.799431  6.778173
406  4 -1.416292  2.091895  3.632724
407  4 -2.031009  5.074866  9.807933
408  4 -1.469818  7.545815  8.970909
409  4 -5.953590 13.095308  3.031101
410  4 -4.689669 14.436789  1.219910
411  4 -4.580913  7.872956  7.850982
412  4 -2.560358  9.505926  7.665955
413  4 -8.126629 12.868067  8.637631
414  4 -6.417213 11.593607  5.148370
415  4 -5.006327 10.326726  7.017405
416  4 -5.863680 12.838800  7.371560
417  4  8.349408  8.943808 15.894460
418  4  4.163411  0.200239  3.567218
419  4  2.538351  1.131874  5.410778
420  4  2.912423 -0.604429  8.975314
421  4  5.321292  0.948079  5.737352
422  4 -6.870827 10.938715 14.549283
423  4  4.120926  2.792670  4.269207
424  4  4.020723  5.179386  3.005243
425  4  6.664978  2.603436  7.204347
426  4 -0.515574  6.626391 11.258456
427  4  5.538189  4.908517  6.793879
428  4  3.716602 -2.259962 15.043261
429  4  3.064468  7.558437  2.654535
430  4  1.287227  8.742130  1.139656
431  4 -4.327468  9.922249  9.483466
432  4 14.452141 -0.553220  3.465511
433  4  9.489823 -0.497669  3.946464
434  4  7.967352  0.991892  5.468431
435  4 13.374840  1.904804  0.347451
436  4 12.630578 -0.255713  1.564297
437  4 13.193859  2.624856  9.628844
438  4 13.422260  0.933418  5.550601
439  4 10.748296  0.687429  5.815882
440  4 12.444666  0.819666  7.895227
441  4 11.385087 -3.466923 16.160315
442  4 11.289302 -4.046355 18.715059
443  4 -3.183983  3.881307 11.887852
444  4  9.764813  2.132866  3.896281
445  4 11.297603  2.133088  1.728254
446  4  9.947274  4.200522  2.297699
447  4 11.864833  2.925279  6.523427
448  4 11.459110  5.214508  7.778197
449  4  6.390532  4.321640  9.128545
450  4 10.512121  6.814901  2.143510
451  4  7.078705  3.220920 11.363802
452  4  8.782884 11.016599  2.800296
453  4  2.883268 10.224392  2.671774
454  4  3.635787 12.769634  2.643235
455  4  2.711119 11.710199  4.935953
456  4  6.603309  8.569542 17.852943
457  4  7.357609 11.978306  0.818062
458  4  5.467266 13.723648  1.117054
459  4  4.930272  6.765058 18.955057
460  4  2.538148  5.733551 18.964060
461  4  6.104820 11.453971  9.336556

