Generated by pymatgen.io.lammps.data.LammpsData

371  atoms

  4  atom types

0.000000 16.859739  xlo xhi
0.000000 12.609509  ylo yhi
0.000000 18.640259  zlo zhi
-8.851026 0.458890 0.205421  xy xz yz

Masses

1  28.08550
2   1.00794
3  12.01070
4  15.99940

Atoms

1    1  2.061899  0.878901  2.976607
2    1 -1.448461  2.440813  4.379156
3    1 -5.346859 12.205234  9.073444
4    1  0.295907  2.443728  6.744400
5    1 -5.251802 12.740504 14.626005
6    1 15.390926  2.257696 16.663198
7    1  2.325566  1.421213 11.961174
8    1 -0.211164  4.519922  2.538375
9    1 -3.859424  6.815798  4.362175
10   1 -0.899536  6.495310  0.463509
11   1 -1.088816  4.449605  8.357267
12   1 11.246923  6.987274 10.269664
13   1 -1.695791  6.941769  6.774355
14   1  0.387998  4.269870 15.600182
15   1 -0.956334  5.629713 13.090513
16   1  9.017635 10.907649  4.210238
17   1 -5.977110 12.059200  0.284450
18   1 -3.041682  8.507492  9.178818
19   1 -3.697576 10.567332  7.069728
20   1 -6.990465 10.915748 16.608079
21   1 -3.535237 10.145171 14.112857
22   1  0.674713 12.057771  2.465006
23   1  7.534412  1.793892 17.544156
24   1  8.815704  0.813629  7.595309
25   1  4.797868  2.104414 10.334551
26   1  8.587403  0.271054 13.713322
27   1  4.850123  2.623885 16.287597
28   1  7.001661  2.690239 12.482244
29   1  6.240280  3.342806  1.521809
30   1  1.641642  6.115695  4.326907
31   1  4.293206  5.464116  0.343204
32   1  5.376914  4.487927  8.400866
33   1  0.398326  6.129893 10.368346
34   1  4.143731  6.177572  6.132701
35   1  5.833684  4.697800 14.504116
36   1  2.139656  6.124202 17.611932
37   1  4.229725  6.715601 12.941335
38   1  3.129203  7.807502  2.159959
39   1  0.592186  9.856009  4.705062
40   1  1.890920 10.103624  0.241671
41   1  1.273433  8.519965  8.568741
42   1 -1.765701 10.036592 11.438912
43   1  2.555185  9.263502 13.928617
44   1  1.147258 11.056088 11.752832
45   1  5.248377 11.873310  0.833667
46   1 10.295706  2.214413  3.813070
47   1 12.586694  1.401718 17.869782
48   1  4.840782 12.419053  7.679768
49   1 10.375657  2.828704  9.158239
50   1 12.675468  2.088026  5.695140
51   1 14.496531  0.191304 14.650889
52   1 10.279318  1.699517 16.012709
53   1 12.149415  2.097548 11.590271
54   1 12.009922  4.600639  2.380790
55   1 10.583075  6.266457  0.057002
56   1 11.935655  4.612301  7.313356
57   1  6.067789  6.870158 10.359063
58   1 10.286373  6.687304  5.922663
59   1 11.950509  3.726587 14.369943
60   1  8.677846  7.817515 11.962498
61   1  4.569024 10.193959  3.363150
62   1  7.009986 10.152811 17.346233
63   1  6.964095  8.487762  8.122605
64   1  3.224837 10.604321  9.633230
65   1  6.468061 10.371968  5.798053
66   1  4.285224 10.589954 16.304728
67   2  3.395254  0.783639  3.623312
68   2  1.527936  2.255454  2.995918
69   2 -0.128071  1.037256  6.932536
70   2  2.085653  0.288341 11.059881
71   2  0.472987  3.886072  1.391141
72   2 -1.119646  5.737208 18.200442
73   2 14.437200  3.831625  8.423589
74   2 -1.631895  4.442758 12.498163
75   2  4.056508  0.504093 17.952899
76   2 -4.372545  9.411049  6.443546
77   2 10.573857  9.626968 16.445629
78   2 -2.854236  9.880596 15.412456
79   2  0.362473 12.563167  6.449716
80   2  7.812075  1.814674  7.120598
81   2 -0.902606 11.703285 14.328562
82   2  4.124738  2.713819 17.562554
83   2  0.773727  6.879351  5.229581
84   2 -0.712849  7.990611  6.458197
85   2  6.461775  4.043902  7.505537
86   2  7.143024  4.849575 15.162658
87   2  1.895444  9.202925  5.007165
88   2 -0.033986 10.218939  6.000560
89   2  1.094399  9.962357 18.188363
90   2  3.796830  7.553943  6.553058
91   2  0.370501  9.641630  8.210456
92   2  1.611637  7.678341  7.395709
93   2 -2.277466 11.265057 10.818396
94   2 -0.700873  1.214637  4.120392
95   2 13.532608  0.887218 13.768348
96   2 13.352097  2.709176 10.965915
97   2  6.456202 11.815499 13.888279
98   2 12.360953  0.663932 11.886371
99   2 12.856926  5.697042  7.651547
100  2 10.581568  6.245134  9.182042
101  2 13.346681  3.654752 14.860965
102  2 11.529685  5.138035 14.182571
103  2  7.441537  8.988026 18.137419
104  2  7.589218  7.188574  7.769800
105  2 -5.840460  9.881705  9.699310
106  2 -6.354616 10.980397 10.982002
107  2 -4.639501 10.581357 10.794387
108  2 -7.794452 12.607415  9.162768
109  2  1.741237  0.267031  7.555158
110  2  1.909159  1.512651  8.819713
111  2  2.098907  3.220596  5.245164
112  2  2.471517  1.609440  5.914424
113  2  2.688148  3.062463  6.908005
114  2  0.792136  1.833959 17.375405
115  2 16.608292  0.756885 18.274108
116  2 -0.590591  2.279512  0.083769
117  2 -4.532101  8.109473  2.453897
118  2 -2.757176  8.001783  2.507245
119  2 -3.613086  9.143761  3.574605
120  2 -1.092389  8.636852 17.818205
121  2 -1.188917  8.953343  0.838625
122  2 -2.741705  8.166421  0.465615
123  2  0.379487  2.561684 11.054121
124  2  0.845033  3.345138 12.585101
125  2 -0.012140  1.786387 12.604413
126  2  2.266994  3.170737 14.499474
127  2  1.005706  1.967537 14.866725
128  2  2.062532  2.596019 16.150424
129  2 12.988355  5.365628 10.873795
130  2 11.459930  5.041425 11.720566
131  2 12.520510  6.340743 12.293474
132  2 -2.702177  7.369753 13.077092
133  2 -1.664266  7.519956 14.510640
134  2 -2.893328  6.236181 14.449985
135  2  9.118750 10.065933  1.916685
136  2  7.435780 10.304123  2.392403
137  2  8.316881  8.879332  2.960614
138  2 -4.342093 10.209898  0.284152
139  2 -5.319489 10.170640  1.764282
140  2 -4.005029 11.352740  1.601478
141  2 -5.928565  9.439099  4.881120
142  2 -5.890066 11.059117  5.623598
143  2 -5.405232 10.842701  3.931417
144  2 -4.720149  7.967984 14.035798
145  2 -5.269800  9.058922 12.739480
146  2 -5.824407  9.303065 14.408715
147  2 -1.697130 12.095790  2.995993
148  2 -1.421854 11.125301  1.535025
149  2  7.421879  0.292594  1.440817
150  2 -1.744289 12.254075 16.506658
151  2 -2.444318 12.256065 18.134642
152  2 -0.694463 12.015820 17.918769
153  2  6.573885  1.684718  3.362796
154  2  4.993418  1.539217  2.574462
155  2  5.273938  2.842637  3.741510
156  2  7.457035  5.430635  1.087827
157  2  8.505704  4.341522  2.008581
158  2  7.174352  5.207529  2.815071
159  2  6.758098  6.856384 18.247975
160  2  5.605360  6.813094 16.913668
161  2  6.549013  5.361216 17.315868
162  2  5.682230  6.698898  4.296095
163  2  5.913808  5.021759  4.879796
164  2  6.562018  6.397402  5.808547
165  2  2.061951  5.158749  8.916605
166  2  2.112936  4.305901 10.463187
167  2  2.861986  5.912804 10.299321
168  2  2.774128  5.228566 14.098504
169  2  3.298199  4.488178 12.569089
170  2  1.992198  5.711933 12.594459
171  2  0.052574  8.555807  2.714376
172  2 -1.353728  9.473946  3.300444
173  2 -0.911625  7.934079  4.060780
174  2 -3.266448 12.069504  5.217390
175  2 -2.183992 10.655524  5.126947
176  2 -1.804719 11.993283  6.225753
177  2 -0.347780 11.492280  9.107817
178  2 -1.883922 12.352142  8.828064
179  2  8.165698  0.426031  9.928883
180  2  2.262112  8.263613 16.482034
181  2  3.484314  7.150713 15.802634
182  2  3.746768  7.930275 17.370596
183  2  0.987487  7.536262 14.859809
184  2  0.310556  8.467435 13.512957
185  2  0.407534  9.205799 15.124147
186  2 15.079768  1.443619  1.524717
187  2 16.022218  0.066480  2.130805
188  2 14.453735  0.467722  2.854588
189  2  8.130914  1.923277  4.947479
190  2  8.101454  3.364065  3.906253
191  2  8.964793  3.402490  5.457010
192  2 15.397136  1.279339  8.697470
193  2  6.502703 12.330620  9.538873
194  2 14.085617  0.921488  9.827387
195  2  7.966731  3.259012  9.593843
196  2  8.601915  4.111438  8.170305
197  2  8.923599  4.744501  9.786099
198  2  8.299908  4.684123 11.848811
199  2  9.344508  3.227287 11.833079
200  2  8.820949  3.930535 13.373472
201  2 11.346969  3.442777 18.441479
202  2 11.453743  2.378854  1.256950
203  2 10.074809  1.775056  0.360726
204  2 12.975935  3.899612  0.211287
205  2 13.664597  2.951873  1.550385
206  2 -2.702703  4.625919  1.307335
207  2 12.107275  7.118598 16.588842
208  2 -3.652838  6.045038 17.475671
209  2 -3.791166  7.758940 17.929208
210  2  9.773848  8.550871 18.267044
211  2 10.308774  8.497326  1.088628
212  2  8.794184  7.576577  1.138715
213  2  9.275601  4.708170 18.269038
214  2 10.432118  4.790725 16.938347
215  2  9.222076  6.060399 17.122345
216  2  9.489290  6.199528  3.655746
217  2  8.386684  7.340098  4.462608
218  2  8.328026  5.616001  4.860895
219  2  9.544665  6.045846 13.527124
220  2  7.985240  6.730451 14.054289
221  2  9.481091  7.654247 14.268056
222  2  8.928273 10.100333 12.861219
223  2  7.266664  9.517201 13.031219
224  2  7.826759 10.146789 11.468885
225  2  3.091807 11.319929  5.044371
226  2  3.048040 12.146632  3.472065
227  2  4.474230 12.261115  4.487046
228  2  9.412603  8.849522  6.705460
229  2 10.976244  8.449313  7.431349
230  2  9.507259  7.688947  8.059489
231  2  8.562208 10.386348  8.018294
232  2  8.801450  9.446186  9.504892
233  2  7.416888 10.547499  9.361734
234  2  5.575058 10.302144 10.324075
235  2  4.463046  9.665460 11.537668
236  2  4.709004 11.421768 11.409982
237  3 -5.567249 10.786024 10.246513
238  3  1.906998  0.431806  8.624438
239  3  2.049410  2.597303  6.145246
240  3 -0.173560  1.773894 17.889783
241  3 -3.651974  8.149911  3.111786
242  3 -1.669752  8.170678  0.241988
243  3  0.747719  2.381127 12.075831
244  3  1.518999  2.860251 15.236100
245  3 12.144122  5.836512 11.397363
246  3 -2.168642  6.804782 13.848165
247  3  8.409116  9.951011  2.745207
248  3 -4.810801 10.837256  1.057350
249  3 -6.111331 10.503517  4.702527
250  3 -4.964877  9.010019 13.794127
251  3 -1.131304 12.047351  2.054902
252  3 -1.570162 12.563031 17.548834
253  3  5.742340  2.254713  2.938935
254  3  7.471215  4.686308  1.894540
255  3  6.017589  6.222542 17.739972
256  3  5.724158  6.059799  5.188665
257  3  2.004948  5.294473 10.006576
258  3  2.945262  5.418688 13.031759
259  3 -0.510444  8.844904  3.610133
260  3 -2.622621 11.397744  5.805397
261  3 -0.807256 12.479164  8.988873
262  3  2.986234  7.482390 16.719958
263  3  0.925353  8.536349 14.419452
264  3 15.011021  0.426453  1.911913
265  3  8.719805  2.775465  4.588169
266  3 14.733499  0.484536  9.055568
267  3  8.824156  3.821753  9.206293
268  3  8.513139  3.726284 12.335545
269  3 11.051086  2.256504  0.259211
270  3 13.309703  3.941501  1.250221
271  3 12.502711  6.882083 17.590123
272  3  9.668570  7.814406  0.518628
273  3  9.896830  5.391719 17.682038
274  3  9.000275  6.441643  4.610034
275  3  8.953711  6.965905 13.592905
276  3  8.124247  9.557395 12.341883
277  3  3.676319 11.583568  4.158660
278  3  9.999194  8.037847  7.152789
279  3  8.046689  9.834522  8.812760
280  3  4.627374 10.489631 10.835210
281  4 -0.830783  3.110033  5.730034
282  4  2.815599  0.734774 13.356845
283  4 -1.323279  3.495748  3.139821
284  4 -0.962567  5.895045  2.015981
285  4  0.064924  3.294768  8.151721
286  4 -2.624723  6.726470  5.449014
287  4 -0.948339  5.541495  7.137057
288  4 -1.073196  3.792575 16.206661
289  4  0.080277  5.146679 14.266602
290  4 -7.820949 12.511848  3.787328
291  4  2.189385  0.426535  1.403332
292  4 -4.553286  8.040897  9.569275
293  4 -2.469281  7.387682  8.151161
294  4 -2.952103  9.947388  8.409814
295  4 -4.767148 11.683347  7.611880
296  4 -6.732770 11.481455 18.122451
297  4 -6.388612 11.975937 15.527392
298  4 -4.089537 11.700404 14.157612
299  4  4.653926  0.618335  9.698508
300  4  3.547182  2.365055 11.364593
301  4  4.301494  1.340916 15.445263
302  4  6.466723  2.444147 16.483059
303  4  6.240527  2.230317 11.097497
304  4  7.414208  1.338051 13.330507
305  4  6.842200  2.347411  0.334052
306  4  0.856064  4.812126  3.738956
307  4  4.841130  4.110963  1.082272
308  4  4.696290  3.195840  9.128265
309  4 -0.834052  5.213144  9.774523
310  4 -0.013307  6.354736 11.943056
311  4  2.940725  5.593736  5.159791
312  4  4.236261  5.243046  7.501399
313  4  4.688445  4.074318 15.518575
314  4  5.902523  3.601195 13.290654
315  4  1.188018  5.220561 16.656059
316  4  3.283590  5.228581 18.376928
317  4  0.692892  6.594354  0.087814
318  4  5.416361  6.199538 13.983139
319  4  2.008572  7.011802  3.016777
320  4  4.079345  6.728090  1.393322
321  4  0.870931 11.243734  3.860491
322  4  2.397127  8.823631  1.119105
323  4  1.567590 11.372075  1.241479
324  4  0.468294  7.607264  9.666074
325  4 -2.207692  8.704944 10.574339
326  4 -2.398908  9.955569 12.944075
327  4  3.648681  8.179015 13.374292
328  4 -0.128079 10.049122 11.534704
329  4  2.221886 10.380103 12.774505
330  4  0.565451 12.459171 12.361399
331  4 10.053398  0.978774  2.743697
332  4 13.823980  2.234985 17.157408
333  4 12.820996  0.028248  0.152440
334  4 10.184531  1.606892  8.090618
335  4 13.834208  2.057352  4.545651
336  4 11.271681  1.659933  5.006363
337  4 13.002602  1.059038  6.898760
338  4 15.506434  1.289638 15.326748
339  4  9.684262  0.840154 14.773542
340  4 11.486939  0.853867 16.730788
341  4  9.060170  2.091849 17.024167
342  4 10.847996  2.225789 10.606531
343  4 11.030800  3.473912  3.072642
344  4 12.769526  5.386935  3.607841
345  4 11.049147  5.619245  1.523543
346  4 11.618659  3.778292  8.674580
347  4 12.639368  3.615529  6.240908
348  4  5.994069  5.443450  9.577067
349  4  4.887067  6.943370 11.463330
350  4 11.670119  7.195383  5.206765
351  4 10.555787  5.222164  6.660314
352  4 10.899113  3.107228 15.464518
353  4 11.814094  2.898127 12.974925
354  4 10.067611  7.835046 11.057793
355  4  7.535436  7.002175 11.063497
356  4  3.977047  8.669947  3.253191
357  4  4.856395 10.593336  1.790639
358  4  8.264216 10.641538 16.383483
359  4  6.635999 11.424741 18.289859
360  4  5.842077  8.076097  9.268906
361  4  2.684900  9.123266  9.164800
362  4  3.660804 11.447520  8.287701
363  4  1.928708 11.355730 10.354832
364  4  8.046832 10.735451  5.548758
365  4  5.892428 10.016175  4.319451
366  4  6.282267  9.043593  6.733924
367  4  5.737655 11.608001  6.559936
368  4  3.320770 10.048671 15.135778
369  4  5.675059  9.705526 16.484550
370  4  4.810603 12.068090 15.861742
371  4  3.465698 10.602326 17.715665

