Generated by pymatgen.io.lammps.data.LammpsData

386  atoms

  4  atom types

0.000000 16.722229  xlo xhi
0.000000 13.589011  ylo yhi
0.000000 17.316128  zlo zhi
-7.346396 -0.307144 -0.017989  xy xz yz

Masses

1  28.08550
2   1.00794
3  12.01070
4  15.99940

Atoms

1    1 -0.240204  1.095233  3.074617
2    1  0.324659  2.881402 16.938134
3    1 -0.827022  3.452061  7.923600
4    1 -5.675463 12.600317  4.524029
5    1 -5.920843 13.358945 14.562604
6    1 14.551140  2.024644 15.653693
7    1 11.898602  7.732521 10.274421
8    1 -0.877361  7.497652  5.863224
9    1 -0.846657  4.431167 13.936297
10   1 -4.021453  8.288668 16.158424
11   1 -2.558177  8.359386  8.282927
12   1  9.645829 12.090532 10.207840
13   1 -3.032458  9.642542 13.501939
14   1 -6.493522 11.764958 17.135590
15   1 -4.711726 11.758262 12.331490
16   1  1.996119 13.176321  2.555462
17   1  4.135033  0.598737  3.722777
18   1  7.669361  3.517090  0.396886
19   1  3.677316  2.051336  8.535622
20   1  6.579329  1.639351  5.297748
21   1  0.963818 12.990517 12.812428
22   1  7.779448  2.058528 11.134911
23   1  5.436474  4.886267  1.571075
24   1  1.889544  6.715531  4.927010
25   1  3.236876  6.344302  0.209058
26   1  5.881450  3.941685  7.101188
27   1  2.366770  6.585234  9.589360
28   1  4.921879  6.868566  6.082047
29   1  6.348641  4.182353 13.098750
30   1  0.482428  6.714962 15.847149
31   1  5.099921  6.159193 10.947568
32   1  2.870785  8.107813  2.579445
33   1  0.075160 11.045932  3.888700
34   1  2.981111 10.895006  0.925651
35   1  3.759417  8.948874  7.919479
36   1 -0.518486 10.149752  9.577291
37   1  2.542620 10.996975  5.847102
38   1  2.193856  8.796310 14.224749
39   1 -0.984838 11.754139 14.678241
40   1  1.659228 10.239506 11.606602
41   1  6.249954 13.555592  2.201399
42   1 12.499049  2.348362  0.427379
43   1 13.911539  1.058762  7.323735
44   1 10.221403  2.645132  9.126483
45   1 12.491998  2.964596  5.229038
46   1  5.726489 13.128643 14.061423
47   1  9.733942  2.973576 15.852482
48   1 12.557416  3.272292 11.167517
49   1 12.087813  5.239723  1.513308
50   1  6.785736  6.671140  3.575209
51   1  9.970558  6.884855 16.917476
52   1 11.115075  4.770762  7.155665
53   1  7.343882  5.380148  9.038049
54   1 10.411534  7.784293  6.235209
55   1 11.022892  4.593476 13.398094
56   1  7.652097  6.359584 14.904303
57   1  9.493769  6.171652 11.132417
58   1  8.564703  8.608558  1.712669
59   1  5.258363 11.627991  4.371907
60   1  7.727329 11.345643  0.509406
61   1  9.030783 10.207334  7.820085
62   1  4.251789 10.956634 10.277139
63   1  7.660692 12.222828  5.831916
64   1  8.434434  8.517687 12.845779
65   1  4.361238 10.709440 15.623442
66   1  7.052440 11.262111 11.902379
67   2  0.348353  1.648913  1.849172
68   2  0.771113  3.491419 15.650091
69   2  0.480980  2.773711  7.739894
70   2 11.186563  9.017691 10.101813
71   2 -0.814918  8.938467  5.563274
72   2 -1.654200  5.013970 12.839822
73   2  0.355295  3.753211 13.387168
74   2  8.171812  3.144900  1.744427
75   2  2.372125  2.165410  7.834111
76   2  7.347043  1.671814  4.030000
77   2  6.634837  1.594316 10.321538
78   2  3.183739  1.731857  3.553131
79   2  1.146317  6.910771 10.362040
80   2 -0.428509  7.106605 16.939329
81   2  2.339675 12.150999  6.745186
82   2  0.116110 10.785158 14.825151
83   2 10.228438  1.452295  8.256988
84   2 12.142913  2.460392  3.892008
85   2 13.668052  3.872087  5.146682
86   2  2.032747 12.842069 13.808088
87   2 -1.094659  4.269848  6.706034
88   2 12.916258  4.673260 10.818493
89   2 -4.108557  7.645666 11.564108
90   2  9.408808  7.826453  5.142855
91   2 11.775219  8.090440  5.737491
92   2 -3.279873  7.015282 16.028068
93   2  6.655835  6.597525 15.953072
94   2  9.673283  9.241891  2.442094
95   2  4.212115  7.899885  3.104643
96   2  3.656993 12.263483  9.955492
97   2  8.132296 12.367749  4.450799
98   2 10.263287 10.381767 16.593024
99   2  7.133777 11.433345 16.390373
100  2  2.273831  1.195956  0.430773
101  2  2.215809  2.610763  1.503092
102  2  2.746867  2.704780 17.257444
103  2 -0.942484  4.762573  0.086754
104  2  0.471262  4.846592  1.161220
105  2 -0.829023  3.665568  1.464841
106  2 -1.880369  4.675434  9.811924
107  2 -0.484021  5.543298  9.181652
108  2 -0.234019  4.150356 10.254611
109  2  9.854943 10.393480  4.441448
110  2 -5.216963 10.277756  5.095634
111  2 -5.462295 10.465468  3.348783
112  2  2.136922  0.658308  6.250828
113  2 -5.308990 12.619594  6.949776
114  2 -6.785906 13.537092  6.601324
115  2 16.167514  0.003457 13.062785
116  2  0.846882  0.956083 12.504599
117  2 -0.125571  1.547106 13.842565
118  2  3.619603  0.843493 14.275052
119  2  3.261265  0.653738 15.999860
120  2  2.495051  1.950811 15.069568
121  2 -1.845519  5.494004  4.779823
122  2 -1.137934  6.608639  3.579867
123  2 -2.711956  6.977805  4.318954
124  2 -3.392046 10.427561 17.181703
125  2 -1.834582  9.203601  0.109594
126  2 -3.287137  9.216316  1.133652
127  2 -4.270179 10.087562  8.013887
128  2 -3.630913  9.632226  6.427539
129  2 -2.704695 10.722397  7.467875
130  2 -0.285116  0.466174  8.852420
131  2  1.429882  0.454540  9.260128
132  2  0.222786  0.956788 10.478214
133  2 -1.639394  8.492534 11.799019
134  2 -2.221943  7.365346 13.035148
135  2 -0.889129  8.473103 13.406337
136  2 -3.828451 12.424576  0.241872
137  2 -4.454859 11.368843  1.526122
138  2 -4.951558 13.058159  1.475888
139  2 11.047225  0.725942  3.907436
140  2  9.678137  0.269472  4.929607
141  2  9.542205  1.667078  3.840873
142  2  6.158274  0.584038  2.279928
143  2  4.660063  0.515485  1.308753
144  2 -2.103785 12.665154  2.152880
145  2  1.518737 13.557362  0.183257
146  2  9.553884  1.407955  0.943816
147  2  7.838262  0.989801  1.212302
148  2  5.997614  1.675712  0.330565
149  2  6.633903  1.684738 16.155082
150  2  5.382898  2.908868 16.438356
151  2  5.250735  0.150228  8.880576
152  2  4.483336  0.092857  7.270124
153  2 -3.766208 13.160219  8.703224
154  2  8.476872  1.330606  6.778277
155  2  0.397912 13.340662  6.431799
156  2  6.987240  0.848268  7.612135
157  2  4.365169  2.262700 10.902217
158  2  2.593938  2.159779 10.769818
159  2  3.427441  3.679908 10.382092
160  2  6.177701  2.932836  2.889386
161  2  4.666486  2.628285  1.981467
162  2  4.636379  3.606499  3.463416
163  2  2.497437  4.921821  3.371208
164  2  0.754574  4.877535  3.697461
165  2  1.903584  4.274709  4.918560
166  2  1.825310  4.312139  8.849632
167  2  3.064411  5.038749  7.810959
168  2  1.359519  5.517237  7.622317
169  2  5.455829  2.189655 14.293702
170  2  4.351307  2.831848 13.061590
171  2  4.480634  3.646460 14.625652
172  2  0.383930  9.367666  2.014454
173  2 -1.193130 10.178828  2.034714
174  2 -0.866908  8.863916  3.171033
175  2 -1.673801 10.612459  5.494979
176  2 -2.330448 11.544867  4.162693
177  2 -1.412915 12.359959  5.435515
178  2  0.401090 10.076112  7.276722
179  2  0.901809 11.520981  8.188295
180  2 -0.711858 11.448001  7.476152
181  2 -1.609064 11.210537 11.553113
182  2 -2.496992 11.451206 10.041761
183  2 -1.045390 12.419051 10.386993
184  2 -3.407747 13.252109 10.820589
185  2 -2.710327 13.222789 12.450625
186  2  3.135621  0.526175 12.131246
187  2  6.754030  7.891496 10.931637
188  2  5.366564  8.478377 11.861998
189  2  5.299594  8.397973 10.093969
190  2  2.672872  6.780156 12.975304
191  2  3.594979  6.762322 14.484924
192  2  4.141914  7.751528 13.116846
193  2  0.883383  9.994289 16.828800
194  2  1.228423 11.680383 16.440140
195  2  0.583980 11.300902  0.580004
196  2 -1.878590 11.850952 16.950082
197  2 -2.340201 13.284343 16.000171
198  2 -0.721019 13.165472 16.713734
199  2 -0.781852  1.815017  5.336363
200  2 -0.828918  3.206759  4.227819
201  2  0.731257  2.564884  4.801468
202  2  8.599972  0.805599 15.603615
203  2  9.647728  1.223085 14.238913
204  2  8.051985  1.979631 14.365044
205  2 11.389124  1.122494 13.118924
206  2  3.818460 13.024008 12.595717
207  2 12.420957  0.432682 11.856613
208  2 -1.743873  2.873579 11.243552
209  2 14.150577  1.398638 10.736467
210  2 14.152194  1.884184 12.453655
211  2 12.094978  5.700464  3.927852
212  2 10.547848  4.979009  3.457477
213  2 10.880646  6.687856  3.090288
214  2 -3.041976  7.141989  1.636426
215  2 -2.573460  6.011348  0.348764
216  2 -2.297649  5.590742  2.048602
217  2 13.494453  5.429925  7.167145
218  2 13.193291  3.850029  7.935791
219  2 12.829189  5.347753  8.801770
220  2  8.740423  5.690167  4.695840
221  2  8.434828  4.945883  3.113786
222  2  7.442446  4.492723  4.520427
223  2 12.979072  5.956758 12.909797
224  2 12.993141  5.391425 14.599764
225  2 11.946464  6.749768 14.103623
226  2  3.669294  8.458644 16.585387
227  2  4.813006  7.155043 16.173610
228  2  5.105890  7.868121  0.481579
229  2  6.999562 10.296414  3.394810
230  2  5.506470 10.033497  2.476102
231  2  5.725963  9.294904  4.087333
232  2  6.932228  7.483448  7.894492
233  2  8.026160  6.444856  6.963109
234  2  8.632846  7.340687  8.373577
235  2  7.476242  9.174255  9.456701
236  2  6.722848  9.377316  7.847167
237  2  6.995247 10.776989  8.875468
238  2  6.377873 13.112597  9.205825
239  2  5.098302 12.838036  7.997229
240  2 12.309044  0.601193  9.155020
241  2  9.687533  9.856014 14.494430
242  2 10.588397  9.584218 12.991754
243  2 10.440854  8.286458 14.178376
244  2  5.456286  8.762149 14.602102
245  2  6.206163  9.133726 16.160363
246  2  6.570548 10.124346 14.739159
247  3  2.189464  2.285320  0.456488
248  3 -0.243277  4.164039  0.680680
249  3 -0.857550  4.544293  9.439489
250  3 -5.843538 10.763266  4.334868
251  3 -5.782176 13.308971  6.236923
252  3  0.278263  0.635876 13.389834
253  3  2.825816  0.904882 15.026538
254  3 -1.716272  6.552432  4.512081
255  3 -2.918098  9.393352  0.115516
256  3 -3.348897  9.835673  7.467511
257  3  0.427960  0.255644  9.659179
258  3 -1.842937  8.380493 12.871112
259  3 -4.711511 12.192266  0.848508
260  3  9.957974  0.654985  3.942034
261  3  5.148891  0.166273  2.225694
262  3  8.844371  0.586814  1.085479
263  3  6.170735  2.315319 16.916957
264  3  4.311221  0.304501  8.334148
265  3  7.520934  0.801226  6.654068
266  3  3.497475  2.587613 10.314248
267  3  5.222944  3.363058  2.568138
268  3  1.736709  5.045375  4.154018
269  3  2.130344  5.237989  8.349733
270  3  5.055475  3.110410 13.858114
271  3 -0.414741  9.727109  2.668381
272  3 -1.464298 11.453688  4.826507
273  3  0.059179 10.849064  7.973731
274  3 -1.493991 11.423362 10.486820
275  3 -3.649376 13.204775 11.884180
276  3  5.663438  7.892236 10.991222
277  3  3.261740  7.403639 13.663204
278  3  1.118073 10.972025 17.267625
279  3 -1.518079 12.596432 16.230528
280  3 -0.281248  2.290919  4.484756
281  3  8.910388  1.620744 14.942069
282  3 11.909305  0.214564 12.799372
283  3 14.093410  2.251124 11.423294
284  3 11.325693  5.682118  3.143622
285  3 -2.992573  6.082092  1.356874
286  3 12.815094  4.872368  7.821799
287  3  7.953014  5.324668  4.024926
288  3 12.358088  5.783378 13.796590
289  3  4.158395  7.555558 16.953026
290  3  5.912440 10.184462  3.478741
291  3  7.776046  6.800225  7.967670
292  3  7.415739  9.810557  8.570375
293  3 13.004118  0.022464  8.540799
294  3  9.910919  9.120151 13.713213
295  3  5.776677  9.577869 15.257310
296  4 -6.675670 13.379834  3.467624
297  4 -0.781862  1.702020 16.459222
298  4 -1.842013  3.317537 14.665929
299  4 -3.739352  7.526202  9.055123
300  4 -1.767487  7.344997  7.246142
301  4 -3.959063  9.035387 14.703921
302  4 -6.700717 12.809938 15.894837
303  4 -5.944727 11.639165 11.275639
304  4 -3.997615 10.272028 12.322503
305  4 -5.300625 12.009101 13.836729
306  4 -4.113695 12.869784  4.056753
307  4  5.110223  0.953187  5.010335
308  4  8.362311  0.804774 12.003072
309  4  6.782271  4.899306  0.622463
310  4  0.690049  6.977374  6.029545
311  4  4.070217  5.008453  0.661736
312  4  4.702546  3.087229  7.773677
313  4  6.331716  3.214455  5.714340
314  4  3.375914  6.765526  5.605837
315  4  5.344472  5.435123  6.715766
316  4  7.292411  3.256719 12.122571
317  4 -0.355806  5.732179 14.838554
318  4  1.799933  5.894075 16.411689
319  4  3.480176  6.080356 10.705887
320  4  5.522421  5.334863 12.289100
321  4  1.801465  7.931246  3.813375
322  4  2.419303  6.952990  1.494936
323  4  0.661316 12.332426  3.043794
324  4  2.868135  9.552165  1.856601
325  4  3.162040 12.137570  1.974264
326  4  2.841652  7.964318  8.813823
327  4  4.956232  8.071005  7.205189
328  4 -1.463214  8.810814  9.406311
329  4  1.225232 10.610022  4.989417
330  4  2.916444  9.678809  6.740857
331  4  1.020640  8.130243 15.194625
332  4 -2.279226 10.966756 14.098445
333  4 -0.496875 12.877541 13.555169
334  4  0.803449  9.604213 10.396240
335  4  1.351543  9.416341 12.964429
336  4  1.206151 11.800859 11.721096
337  4 14.926737  0.750885  2.684121
338  4 13.457432  2.538619 16.742237
339  4 12.662243  0.985042  1.319887
340  4 14.746568  2.256863  8.057835
341  4  8.972999  2.552905 10.158177
342  4 12.884935  1.702010  6.213442
343  4 13.943045  0.714592 14.859749
344  4 10.857668  2.262819 16.817943
345  4  8.661918  3.808751 16.773908
346  4 11.630872  2.645585  9.959180
347  4 12.369770  3.614622  1.438988
348  4  5.583028  6.167106  2.572415
349  4  5.991340  7.258705  4.906663
350  4 11.122993  7.977519 16.526322
351  4 11.041510  5.639790  0.290443
352  4 10.115116  4.004340  8.216503
353  4 11.191654  3.812921  5.800972
354  4  7.192318  4.032414  8.086355
355  4  5.830421  5.446170  9.672702
356  4 10.468710  6.241117  6.804684
357  4 10.416043  3.982484 14.774986
358  4 11.638242  3.335799 12.535543
359  4  7.335350  4.910070 14.198827
360  4  9.155045  6.447518 15.571286
361  4 10.822799  6.472104 10.218472
362  4  8.409992  5.308735 10.284204
363  4  9.868911  5.340341 12.483716
364  4  7.611095  7.845788  2.790061
365  4  9.196480  7.557887  0.635692
366  4  5.467718 13.038266  3.540906
367  4  3.707247 11.422229  4.801243
368  4  9.227460 11.914920  0.817408
369  4  7.676303  9.753438  0.935054
370  4  6.645935 12.245903  1.318640
371  4  9.998568  8.956320  7.331960
372  4  9.867785 11.097608  8.914897
373  4  4.409631 10.102584  8.884940
374  4  3.261728 10.152846 11.308817
375  4  6.099789 11.722634  5.802496
376  4  8.679764 11.155118  6.519920
377  4 15.035941  0.085582  6.594518
378  4  7.509840  7.530733 13.772001
379  4  8.869468  7.636965 11.515745
380  4  2.995464 10.079614 14.893099
381  4  4.796868 12.218403 15.088599
382  4  3.969056 10.832281 17.222967
383  4  8.168922 11.932998 10.924208
384  4  5.671424 11.170101 11.038131
385  4  7.518853  9.779306 12.347248
386  4  6.814703 12.166282 13.251080

