Generated by pymatgen.io.lammps.data.LammpsData

350  atoms

  4  atom types

0.000000 15.678164  xlo xhi
0.000000 13.544330  ylo yhi
0.000000 17.638255  zlo zhi
-7.040851 -1.014405 0.675028  xy xz yz

Masses

1  28.08550
2   1.00794
3  12.01070
4  15.99940

Atoms

1    1 14.076685  2.116088  3.288600
2    1  0.573547  1.720766 16.252188
3    1  1.373594  0.292581  7.522945
4    1 13.580230  2.864711  8.979124
5    1  0.469329  2.446380  5.641031
6    1  2.595498  0.863883 13.144839
7    1 -1.249557  3.076223 14.211777
8    1  0.013633  2.731233  0.832543
9    1 11.205721  5.907496  4.093698
10   1 -2.694270  5.547829 17.055328
11   1  0.134253  4.649134  7.975384
12   1 -3.908832  7.467651 10.022656
13   1 -1.116791  7.101799  6.451562
14   1 -0.163401  5.923060 14.110428
15   1 -1.198583  7.110143 11.485573
16   1 -2.185963  7.747735  2.809651
17   1 -4.745869 11.388114  3.163968
18   1 -2.267743  9.748155  0.420514
19   1 -2.705059  9.426780  8.024736
20   1 -6.886338 12.648148 10.057898
21   1 -4.116141 11.499780  6.201734
22   1 -2.391592 10.892007 14.460247
23   1 -3.579030 11.790365 11.726018
24   1  3.147496  2.261762  3.830906
25   1 -0.161502 13.548537  7.362949
26   1  3.288228  2.096927  8.902768
27   1  5.666990  1.616013  5.100860
28   1  8.050266  1.050647 14.521946
29   1  3.093801  3.633897 16.339462
30   1  6.517946  2.985446 12.450633
31   1  4.749488  4.491470  2.495619
32   1  1.632987  7.280983  5.167374
33   1  3.464974  6.847059  0.791534
34   1  5.362530  3.804991  7.289362
35   1  1.392020  6.696258  9.774151
36   1  4.315922  6.519938  6.395720
37   1  4.618407  4.998323 13.940942
38   1 -0.339552  7.485432 16.862930
39   1  3.914919  7.213230 11.803415
40   1  2.501862  9.196521  2.731884
41   1  2.129840  9.399753  8.542330
42   1 -1.479689 11.824312  9.420451
43   1  1.125323 11.022407  6.112114
44   1  3.111820  9.694429 13.676633
45   1  1.446062 12.093806 12.558967
46   1  4.920641 13.635516  2.595716
47   1  8.021999  1.710993  3.118779
48   1  9.660745  3.159440 15.717308
49   1 11.177391  2.883104 10.911466
50   1  9.480372  4.232731  1.967177
51   1  6.327581  6.499326  4.019988
52   1  8.991354  6.747798  0.158533
53   1  9.897021  5.762388  8.277404
54   1  6.788443  7.862456 10.554256
55   1  8.859884  7.184799  5.590868
56   1 10.671064  5.015068 13.235024
57   1  9.456094  7.702017 12.270916
58   1  9.806424  9.424022  1.175660
59   1  3.645303 11.396043  4.353950
60   1  6.374415 11.420326  0.916731
61   1  7.249166 10.348992  8.888428
62   1  2.506931 12.109293  9.800749
63   1  5.888853 11.690773  6.430114
64   1  9.149621 10.168574 14.225517
65   1  3.928764 11.480444 15.957012
66   1  7.841018 12.550302 12.836029
67   2 13.902073  1.484165  9.414807
68   2 13.080539  2.893055  7.577888
69   2 -5.673649 14.063718 13.894924
70   2 13.005918  3.025349 14.647389
71   2 -2.754136  5.504246 15.578883
72   2 -1.879823  6.673743  5.275144
73   2  1.197421  5.872636 13.543852
74   2 -0.938679  6.937493  2.819034
75   2 -3.456678 12.052717  2.843234
76   2 -4.499840 10.493417 17.212397
77   2 -2.083227 10.419057 17.175198
78   2 -2.169742 10.960278  1.283712
79   2 -2.900068 12.307735  6.029620
80   2 -0.996281 11.154140 14.920570
81   2 -3.325879 11.690142 15.303832
82   2 -5.777735 11.698709 10.224350
83   2 -4.527682 10.670187 11.665307
84   2  7.653207  1.157199  7.857455
85   2  3.608420  1.215311 10.033804
86   2  7.107999  0.655905 15.590577
87   2  2.464704  4.577603 17.294080
88   2  2.285965  3.124736  9.262642
89   2  5.169401  3.538836  1.466974
90   2  5.712177  5.728937 14.626259
91   2  3.550336  9.068887  8.701110
92   2 -0.106900 10.545092  5.474050
93   2 -0.595140  8.935204 16.897272
94   2 -0.353157 11.699272 10.337111
95   2  0.150174 11.403473 12.551400
96   2 11.144420  1.170780  2.008644
97   2  8.960085  1.496112  4.256958
98   2 10.769459  3.099218 16.702863
99   2 10.459946  3.491473  1.155923
100  2  7.671660  7.422600  0.076321
101  2  8.994918  5.632087  9.439888
102  2 10.265888  4.450598  7.705289
103  2  7.309460  7.001640  9.490969
104  2 12.020788  5.521615 13.525984
105  2  8.989410 10.822431 17.536818
106  2  7.633083 12.005017  0.383632
107  2  8.434701  9.661854  1.681578
108  2  6.587726 10.600481  2.126574
109  2  2.277064 13.093398  8.729137
110  2 -5.458904 10.432967 15.217369
111  2  7.690229 13.562324 13.891466
112  2 12.617291  3.259238  1.750385
113  2 -2.281235  4.441890  2.824185
114  2 12.048689  3.434746  3.414114
115  2 -5.447819 13.423817 17.507997
116  2 -5.626697 12.970110 15.798285
117  2 -7.045295 12.967264 16.873072
118  2  1.592809  2.403073 11.502682
119  2  3.283830  2.859647 11.829907
120  2  2.025668  3.253534 13.009942
121  2 -0.101518  3.459297 12.078765
122  2 -1.845128  3.656127 11.923478
123  2 -1.125371  2.020581 11.948965
124  2 12.947940  4.493929  5.235052
125  2 11.290215  4.052171  5.681793
126  2 12.054190  5.488200  6.385860
127  2 11.106536  7.048769 17.195429
128  2 12.340430  5.608769  1.132358
129  2 10.579909  5.363891 17.445892
130  2 -2.177517 10.125818  3.459691
131  2 -1.190541  9.164103  4.562135
132  2 -2.967304  9.130807  4.708532
133  2 -2.002105  8.440345 14.233331
134  2 -3.691118  8.878193 13.877285
135  2 -3.130394  8.796071 15.551579
136  2 -0.623148  9.277232 10.552562
137  2 -0.166728  9.216778 12.255783
138  2 -1.859462  9.465039 11.818195
139  2  3.932190  0.787717  2.081843
140  2  3.029171  2.148298  1.371533
141  2  2.154209  0.789569  2.075388
142  2 -2.141901 13.766203 13.814581
143  2 -3.176420 13.940312 15.245344
144  2  4.482247  1.836664 14.399448
145  2  5.320386  3.556612 17.410722
146  2  5.104017  2.167151 16.319901
147  2  5.327758  1.510152  0.272141
148  2  6.974906  1.066416 11.043823
149  2  5.752812  2.085723 10.270209
150  2  5.291015  0.990854 11.593131
151  2  6.699871  4.886493 10.993025
152  2  8.314756  4.153918 11.155403
153  2  7.657194  5.156971 12.461709
154  2  1.824704  4.390291  0.854820
155  2  1.522068  3.708067  2.463782
156  2  0.438080  4.926232  1.798820
157  2  1.699681  4.867352  4.907845
158  2  1.933541  5.682743  3.365732
159  2  0.295874  5.545522  4.040554
160  2  3.790288  8.557983 16.602519
161  2  3.811863  6.779312 16.557877
162  2  5.814363  6.987621  0.100679
163  2  0.479040 10.599074  2.687911
164  2  0.352273  9.225358  1.563667
165  2  1.307834 10.650025  1.109411
166  2  5.255257  8.545212  7.379687
167  2  6.354869  7.158587  7.547868
168  2  4.943160  7.307872  8.621985
169  2  2.027493  7.980893 15.009062
170  2  1.023287  8.454694 13.638904
171  2  1.084169  9.487936 15.075046
172  2  0.891649 12.928917  2.344671
173  2  9.048557  0.320320  1.324245
174  2  7.287611  0.487131  1.104790
175  2  7.990497  4.609950 16.945213
176  2  7.684975  2.877589 17.128862
177  2  7.276715  3.703412 15.609856
178  2  9.026544  1.798956 10.339757
179  2 10.190801  1.680997  9.010803
180  2  9.322716  3.197684  9.275694
181  2 12.466191  0.846683 11.469822
182  2 10.837171  0.815527 12.185336
183  2 12.120664  1.778363 12.943675
184  2  7.753245  6.930763 15.391000
185  2  9.141627  6.057668 16.045715
186  2  9.280271  7.774467 15.721188
187  2  7.474541  4.986430  7.290984
188  2  7.474069  3.610733  8.427047
189  2  6.693825  5.143342  8.887141
190  2  5.692397  8.027688  2.209209
191  2  7.451918  8.040334  2.444786
192  2  6.370541  8.899220  3.571994
193  2  8.348244  9.224367  4.444064
194  2  9.193795  9.574982  5.941975
195  2  7.452696  9.188516  5.984660
196  2  9.539185 10.214756  7.951325
197  2  8.836753  8.594543  8.152349
198  2  9.406757  9.512452  9.557959
199  2  8.535696 11.809963  2.919343
200  2 -6.240567 12.754606  1.717666
201  2 -6.307518 13.284615  3.410198
202  2  7.336982 11.215234  4.529328
203  2  8.309205 11.865150  5.859111
204  2  7.294910 12.952457  4.886802
205  2 12.270015  0.490951  6.318235
206  2  5.924610 13.664872  7.913685
207  2  4.238580 13.212462  7.546263
208  2  7.600425  9.278797 15.963679
209  2  6.780605  9.373440 14.401388
210  2  7.081500 10.839778 15.356641
211  2  4.298634 13.317263 14.314291
212  2  5.792008 12.924423 15.197650
213  2  4.504137 13.863596 15.982146
214  2  1.858606 10.735482 17.052453
215  2  1.421708 11.755544 15.656932
216  2  2.050265 12.496902 17.141826
217  2  4.623206 11.271113  9.054298
218  2  4.455916 11.029368 10.792178
219  2  4.912427 12.632436 10.143161
220  2  5.920584 11.186592 13.504219
221  2  6.351348 10.855263 11.813063
222  2  5.475560 12.338201 12.253578
223  3 12.938470  3.447225  2.780759
224  3 -6.110384 13.492751 16.632240
225  3  2.355774  2.496469 12.285027
226  3 -1.065671  3.028668 12.374612
227  3 11.957362  4.899693  5.465178
228  3 12.365122  5.426188  0.055331
229  3 -2.131935  9.170510  4.000497
230  3 -2.835338  9.084021 14.532952
231  3 -0.947046  8.929753 11.541769
232  3  3.038664  1.418937  2.188361
233  3  4.098020  0.822901 14.263281
234  3  4.600378  2.809058 17.052171
235  3  6.073292  1.669402 11.231194
236  3  7.401025  4.415197 11.695698
237  3  1.048664  4.055087  1.544353
238  3  1.352637  5.699600  4.291776
239  3  3.832544  7.656042 17.221957
240  3  1.029850 10.000402  1.949680
241  3  5.305665  7.474163  7.601136
242  3  1.681969  8.839920 14.423472
243  3  8.084860  0.354490  1.850429
244  3  8.013099  3.653879 16.422397
245  3  9.796479  2.353324  9.787609
246  3 11.707618  1.454662 11.980556
247  3  8.596857  7.001912 16.092809
248  3  6.889026  4.462301  8.054262
249  3  6.488030  7.995190  2.962204
250  3  8.408201  8.954835  5.505429
251  3  8.899572  9.596420  8.586303
252  3 -6.235454 12.405655  2.757935
253  3  7.352102 11.957357  5.336295
254  3  5.251278 13.292682  7.130000
255  3  7.508961  9.873678 15.052381
256  3  4.702377 13.031565 15.291591
257  3  2.140475 11.626585 16.473319
258  3  4.289352 11.746740  9.984134
259  3  6.258653 11.642251 12.568862
260  4 -0.877449  2.506620  4.717916
261  4  0.390658  1.023360  6.444436
262  4 -0.453220  1.876918 14.992975
263  4 -0.537881  1.814939  2.085212
264  4 -0.152505  2.370552 17.556273
265  4 -2.245946  4.053881 17.607194
266  4 -0.708086  3.754193  9.049536
267  4  0.591247  3.678868  6.723156
268  4 -0.863779  5.797976  7.394221
269  4 -0.570703  4.484257 14.745617
270  4 -2.638855  6.766385 10.767767
271  4 -1.233952  6.391975 12.959779
272  4 -3.408382  6.684607  3.121989
273  4 -2.308903  8.344299  1.277680
274  4 -3.459131  8.893651  9.367536
275  4 -1.996507  8.184828  7.276433
276  4 -6.444356 13.776624  8.956953
277  4 -4.747893 11.042415  4.771236
278  4 -3.800860 10.131037  7.043855
279  4 -5.279003 12.335181  7.016798
280  4 -2.474292 11.464976 12.898168
281  4 -4.281699 13.224635 11.988810
282  4  1.740281  2.468212  4.632000
283  4  2.720846  1.180441  7.657843
284  4  4.095494  1.333234  4.794007
285  4  6.204543  0.322180  5.918446
286  4  1.968545  2.520712 15.912193
287  4  7.406079  2.237538 13.621989
288  4  3.867043  3.726283  3.647238
289  4  0.276844  7.771341  5.957638
290  4  3.782062  5.641908  1.851047
291  4  4.659194  2.811354  8.379106
292  4  5.863222  2.961274  5.979545
293  4  1.395664  5.410773  8.731007
294  4  0.081042  6.443222 10.703140
295  4  2.794445  7.104628  6.310650
296  4  4.270637  4.931531  6.823712
297  4  3.489172  4.541026 15.021444
298  4  5.200734  3.671945 13.196096
299  4 -0.230610  7.004774 15.316443
300  4  2.070256  6.507958  0.002893
301  4 -1.579424  6.674851 17.539781
302  4  2.753381  6.862491 10.690494
303  4  3.879559  6.005101 12.889155
304  4  2.019737  8.456056  4.103029
305  4  3.236007  8.207280  1.663323
306  4  1.213300  8.100446  8.951820
307  4 -1.557147 10.505820  8.439958
308  4 -1.303420 13.151393  8.470737
309  4 -2.862772 11.935822 10.260614
310  4  1.853220  9.869057  7.004416
311  4  0.804963 12.269516  7.108393
312  4  3.767207  8.659363 12.565863
313  4  2.659221 11.048289 12.870335
314  4  1.401037 13.276645 13.664568
315  4 13.211574  0.724256  3.449902
316  4  6.477409  1.758076  3.697860
317  4  9.451279  1.618073 15.154718
318  4 12.417951  3.459063  9.971823
319  4  8.343697  3.173815  2.443022
320  4 10.243875  4.905957  3.226884
321  4  6.103405  5.145027  3.124229
322  4  4.970492  6.682684  4.909238
323  4  8.768696  5.408099  1.077927
324  4 11.264605  6.495691  8.818175
325  4  5.376882  7.232215 11.082028
326  4 10.231815  7.053893  4.723789
327  4  7.645701  6.250623  4.980091
328  4  9.154559  6.661470  7.122839
329  4 10.112724  4.154970 14.496900
330  4 10.683536  4.136957 11.862079
331  4 10.550190  7.790930 11.061109
332  4  7.918313  7.871740 11.743198
333  4  9.638883  6.277986 13.030914
334  4 10.007653  7.811359  0.926308
335  4 -4.798708  9.972137  2.299764
336  4  3.658164 10.283494  3.163298
337  4  4.026398 12.830356  3.688124
338  4  2.134663 11.551026  4.943438
339  4  5.395140 12.682999  1.351408
340  4  6.498599  9.379629 10.002637
341  4  7.466844 11.850766  9.516050
342  4  1.750554 10.655378  9.530743
343  4  1.792370 12.794267 11.124994
344  4  4.686243 10.981572  5.528552
345  4  6.255781 10.561828  7.600201
346  4  9.708893  8.897224 13.337272
347  4  4.134432 10.206152 14.874746
348  4  4.719129 11.137018 17.384088
349  4 -7.323927 13.348615 11.468076
350  4  9.033256 11.477172 13.241991

