Generated by pymatgen.io.lammps.data.LammpsData

475  atoms

  4  atom types

0.000000 17.366000  xlo xhi
0.000000 14.138004  ylo yhi
0.000000 19.529097  zlo zhi
-10.662225 -0.838914 -0.123821  xy xz yz

Masses

1  28.08550
2   1.00794
3  12.01070
4  15.99940

Atoms

1    1   0.454300  5.834153  0.250949
2    1   2.527957  0.250266  8.112973
3    1  14.545381  0.242024 17.239701
4    1   0.371139  1.720010 13.315329
5    1  -1.993552  6.535199  1.932404
6    1  11.320148  7.702187  4.401663
7    1  -2.351870  5.571178  7.922955
8    1  11.433567  6.939619 10.416625
9    1  -3.803669  7.866743  6.566268
10   1  -1.003752  4.451490 13.468633
11   1  -4.952607  6.143037 16.622972
12   1   7.559688 12.030922  4.764514
13   1  -5.703632  9.471013  8.479144
14   1  -7.537457 11.602398  6.994542
15   1  -3.662107  8.759607 15.410997
16   1  -7.441762  9.884378 17.826941
17   1  -4.277981 13.788561  2.868824
18   1   4.712087  2.091624  2.534486
19   1  -2.479462 13.791821 14.485122
20   1   7.037841  2.433194 13.684429
21   1   6.699476  3.881282  3.883752
22   1  -1.384743  7.823921  4.601446
23   1   4.223324  5.658802  9.243512
24   1   0.809101  5.765248  4.875049
25   1   6.087565  4.312859 15.911527
26   1   4.056349  6.410751 15.227618
27   1   0.113642 10.090416  2.946355
28   1   1.084716 10.009395  8.544957
29   1  -4.318003 11.827211 10.024286
30   1   0.176307 12.213306  6.726212
31   1  -2.915388 11.561704 16.623949
32   1  -1.764452 12.100740 11.926225
33   1  12.712942  0.403057  2.054266
34   1  11.929883  0.876285 18.595216
35   1  14.117381  0.686424  7.533154
36   1   9.349926  2.487254 11.557710
37   1  11.786450  2.743312  6.983605
38   1   9.829594  1.413124 16.317733
39   1  11.908049  1.733579 12.803081
40   1  10.481259  4.271319  9.373967
41   1   5.273362  8.494167  9.735841
42   1  11.219418  3.915223 14.786261
43   1   7.173542  5.093975 18.655756
44   1   9.931911  6.294626 13.229011
45   1   6.805883 10.147161  2.313807
46   1   1.907885 12.283580  4.160674
47   1   7.462979 10.807556 19.259401
48   1   5.573423 10.503763  7.658921
49   1   4.578898 12.612427  5.722026
50   1   9.299854  8.591040 15.127825
51   1  -8.523065 11.091958 13.470390
52   2   2.630521  6.530184  1.207094
53   2   2.124412  5.265648 19.497070
54   2   2.577718  4.761124  1.514677
55   2  -0.116863  6.409909 17.434211
56   2   0.619456  7.549172 18.545612
57   2  -1.145291  7.634090 18.397582
58   2   0.412091  0.079172  6.555918
59   2   1.727335  1.311958  5.983715
60   2   0.798944  1.795511  7.271855
61   2   4.374539  1.430530  7.105857
62   2   4.804129  1.409628  8.819340
63   2   3.462554  2.463603  8.241670
64   2  -9.836600 13.883118  9.718655
65   2   1.355632  1.462891  9.828604
66   2   2.372348  0.139488 10.488883
67   2  -0.976964  1.387880 18.470816
68   2  -0.354711 -0.055153 17.595912
69   2   5.408975 13.865849 19.221124
70   2   0.152053  3.483030  0.737223
71   2  -0.409936  3.587059 18.468863
72   2  -1.985559  3.987652 19.172301
73   2   2.896411 13.037106 15.515282
74   2   3.558800 11.922085 16.846385
75   2   4.692969 12.645825 15.595156
76   2 -10.041739 13.776011 11.939114
77   2  -0.771500  0.713759 11.338594
78   2   5.613834 13.757085 12.672041
79   2   1.597559  1.288819 15.564691
80   2   0.247735 -0.042404 15.116888
81   2  -0.066188  1.601947 15.814468
82   2   1.913090  3.137243 11.926615
83   2   2.612745  1.527918 12.461127
84   2   2.491039  2.800589 13.603383
85   2  -2.339291  4.012480  1.609784
86   2  -3.781292  5.005555  1.249472
87   2  -3.389643  4.696707  2.933661
88   2  -3.836859  7.387098  0.647975
89   2  -3.240333  7.548551 19.312520
90   2  -2.736023  8.756603  1.123118
91   2  -5.421980 10.070906  4.484857
92   2  -6.619325  9.670018  3.025057
93   2  -4.754593  9.448777  2.977601
94   2   9.556182  7.035635  6.043084
95   2   8.872621  7.474343  4.369831
96   2   9.455283  8.751784  5.629458
97   2  10.397107  6.535412  2.277874
98   2  11.345696  5.430376  3.327368
99   2  -5.140473  6.692549  2.379230
100  2  13.589334  3.955082  8.878709
101  2  -3.317961  5.000284 10.376005
102  2  -2.248883  3.874586  9.711820
103  2  -1.216244  3.889398  6.439134
104  2  -2.220057  5.031587  5.461117
105  2  -2.895008  3.677041  6.439720
106  2  -0.267877  6.883413  7.686262
107  2  -0.133550  5.371508  8.687519
108  2  -0.791260  6.805230  9.470050
109  2  -3.474730  7.126664 10.126813
110  2  -3.958092  6.798527 11.954346
111  2  -4.068858  8.420563 11.109713
112  2  14.965153  1.714056 15.257889
113  2  -2.126663  2.592101 16.673162
114  2  13.489855  2.306827 16.222235
115  2  -3.020792  4.122468 14.744469
116  2  -3.356592  4.420733 12.923380
117  2  -2.905179  5.755733 13.934988
118  2  -1.432674  5.880567 11.438192
119  2  -0.093878  4.793119 11.118696
120  2   0.215584  6.207879 12.126788
121  2   0.183194  6.161473 14.807938
122  2   1.068304  4.646706 14.722010
123  2  -0.386675  4.707805 15.744163
124  2  -3.029998  4.732652 17.087765
125  2  -3.775060  5.377276 18.637204
126  2  -2.779487  6.342066 17.408823
127  2   9.909208  6.442713 17.054566
128  2  10.869939  6.827059 18.402854
129  2  10.792748  5.127863 18.015788
130  2  -8.326593 13.068426  3.060795
131  2  -8.274645 13.800454  4.650073
132  2   1.031617  0.016674  3.569138
133  2  -6.704780 11.827609  4.721355
134  2  -5.309998 11.811477  5.883141
135  2  -6.391647 13.287158  5.756201
136  2  -1.745340  7.220444 15.649838
137  2  -1.127142  8.874131 15.343231
138  2  -1.969920  7.924792 13.956274
139  2  -5.309654  8.686324 13.590104
140  2  -3.756040  9.713471 13.073950
141  2  -5.021672 10.427159 14.054896
142  2  -5.047978 10.420448  0.284734
143  2  -5.246747  9.200025 18.529794
144  2  -5.529382  8.666900  0.241966
145  2  -8.026935 12.114141 16.613599
146  2  -6.298712 11.602727 16.330427
147  2  -6.918378 12.312153 17.983565
148  2  -3.406799 12.331158  4.594806
149  2  -4.073094 13.910342  5.201770
150  2  -2.414892 13.800944  4.305190
151  2  -5.785313 11.883038  2.490155
152  2  -4.108333 11.590033  1.965408
153  2  -5.208667 12.490884  0.943255
154  2   8.585628  0.060155  1.951543
155  2   7.667928  1.514175  1.606268
156  2   7.291307  0.119596  0.693088
157  2   3.500284  2.453944  4.591877
158  2   2.366716  2.141530  3.181290
159  2   3.255740  3.693240  3.483405
160  2   4.890031  1.718077 13.464141
161  2   5.608832  2.002475 11.801043
162  2   4.992172  3.387725 12.936855
163  2   7.059445  3.551731  6.380351
164  2   7.635560  2.162348  5.427917
165  2   5.825179  2.491376  5.689803
166  2   4.727976  5.168627  4.651636
167  2   5.385111  5.817554  3.203358
168  2   6.228169  6.002837  4.908443
169  2   8.946068  3.581281  2.923701
170  2   8.724041  4.883377  4.174735
171  2   8.356581  5.158350  2.526284
172  2   6.340652  4.506629  9.811614
173  2   4.778385  3.507699 10.292420
174  2   5.501634  4.965234 11.265946
175  2   4.185927  6.111970  6.716642
176  2   4.487222  4.388016  7.246467
177  2   5.735273  5.597523  7.380046
178  2   1.769710  5.952987  9.782906
179  2   2.591864  5.087793 11.023394
180  2   2.181456  4.268240  9.391348
181  2   2.471672  4.340647  5.998753
182  2   0.928542  4.258817  6.774644
183  2   2.035199  5.764210  6.956460
184  2   0.478004  4.307952  2.860427
185  2  -1.081176  4.494299  3.795675
186  2   0.177988  3.351560  4.369831
187  2   4.971901  2.056196 15.971287
188  2   3.797441  3.323908 15.777363
189  2   4.459836  2.924964 17.400426
190  2   4.178648  6.453022 12.841944
191  2   2.449411  6.610977 13.371768
192  2   3.273712  5.047555 13.556709
193  2   3.429150  6.477570 17.666607
194  2   2.641723  5.057338 16.807913
195  2   2.110614  6.755253 16.505212
196  2   1.338239 10.033828  0.632938
197  2  -0.132093  9.000053  0.789757
198  2   1.449952  8.484818  1.399065
199  2  -2.159983 10.726388  2.337242
200  2  -0.829430 11.669814  1.311965
201  2  -1.169684 12.077178  2.909836
202  2  -0.502804  8.750950  9.863952
203  2  -0.981775  8.986044  8.194800
204  2  -1.281335 10.263858  9.350922
205  2   2.901229  5.899867  3.533204
206  2   2.769258  7.162284  4.754163
207  2   1.797766  7.379944  3.248079
208  2   2.004514  7.906389  8.050870
209  2   2.894022  9.146659  7.078712
210  2   1.096856  8.467838  6.619192
211  2   2.332291  9.111700 10.318003
212  2   1.410894 10.556508 10.712296
213  2   3.010280 10.785532  9.866686
214  2  -5.032656 13.074312  7.952444
215  2  -3.303428 12.327361  7.869640
216  2  -3.645368 13.789280  8.976745
217  2  -5.133744 13.421576 11.648521
218  2  -6.105674 11.960948 11.564155
219  2  -6.287312 13.224057 10.267814
220  2  -2.032229 10.983143  6.751014
221  2  -0.592573 10.016274  6.233493
222  2  -1.296953 11.344605  5.085963
223  2  -1.516963 13.923420  6.751600
224  2  10.428714  0.192483  7.794258
225  2  -1.363660 13.144820  8.404738
226  2  -0.623615 12.286898 17.172521
227  2  -0.578493 11.045780 15.870126
228  2  -0.768840 10.531213 17.600599
229  2  -4.139916 11.479339 18.777423
230  2  -4.561635 12.877451 17.750973
231  2  -3.034420 12.886632 18.688956
232  2  -1.162392  9.695834 12.198655
233  2  -1.606004 10.424386 13.823281
234  2   0.035576 10.790736 13.081957
235  2  -0.144211 11.914140 10.094200
236  2   0.443580 12.935313 11.635241
237  2  -0.540526 13.669471 10.502553
238  2  11.973012  2.715804  2.135116
239  2  12.482406  2.261786  3.748024
240  2  10.860459  1.700119  3.140279
241  2  11.409381  3.335278 19.335759
242  2  12.480417  3.237928 17.943725
243  2  13.155130  2.707777 19.500780
244  2  -1.440536  2.311652  8.258855
245  2  -0.964810  0.761094  8.667013
246  2  15.242218  1.576483  9.684870
247  2   3.088626 12.551685  8.389700
248  2   1.661249 13.661717  8.603739
249  2   3.108545 13.801657  9.655772
250  2   8.941092  1.332254  9.360687
251  2   7.487831  2.098741 10.152982
252  2   7.975295  0.593021 10.825565
253  2  10.971137  4.693662  5.888999
254  2  12.417467  4.112565  5.023274
255  2  12.531956  5.027404  6.656102
256  2  10.638456  1.116134  5.517361
257  2  10.066692  2.739966  5.192201
258  2   9.452121  1.961826  6.706097
259  2   8.664130  1.235654 18.598145
260  2   7.611935  0.790846 17.130729
261  2   7.953619  2.499326 17.458232
262  2   3.356200  1.218131  0.646608
263  2   4.971101  1.669211  0.165997
264  2   3.679325  2.998517  0.492524
265  2  13.157321  3.082501 11.239777
266  2  12.709304  1.493853 10.475408
267  2  14.030149  1.560046 11.809050
268  2   2.220653 13.660726 12.729066
269  2   1.202598 13.761261 14.332405
270  2  13.490867  0.454029 13.949830
271  2   9.153965  5.184232  7.564401
272  2   8.267969  5.278739  8.981237
273  2   8.409063  3.725601  8.302210
274  2   5.673512 10.056506 11.416515
275  2   5.779280  8.429568 12.097690
276  2   4.122062  9.088756 11.818424
277  2   4.916385  8.763838 14.543124
278  2   4.760485  8.478790 16.353276
279  2   3.319626  8.609944 15.401818
280  2   9.955220  5.004934  0.611651
281  2   9.207915  3.772182 18.682902
282  2   8.971584  3.481770  0.534511
283  2   6.473461  3.804913  0.297428
284  2   4.727592  4.836020 18.935608
285  2   6.139892  5.517391  0.908689
286  2   7.745238  8.678407  9.531762
287  2   7.096803  7.533367  8.394973
288  2   7.262876  7.225495 10.103574
289  2   7.496333  5.675302 13.598306
290  2   8.006808  5.464163 11.868223
291  2   7.672554  7.079863 12.491201
292  2   4.790862 10.552937  1.062773
293  2   5.712248 12.062518  1.319776
294  2   4.671380 11.287079  2.608306
295  2   6.900696  7.963253  3.452744
296  2   6.451453  7.765742  1.825385
297  2   5.189471  8.421290  2.989905
298  2  -9.106249 13.122664 18.655756
299  2  -7.332490 12.524660  0.521622
300  2  -9.006233 13.261376  0.702462
301  2  14.953526  0.237437  3.156879
302  2  14.806756  1.590305  2.153083
303  2   4.362533 14.116500  1.295560
304  2   5.523519  9.855156 18.132181
305  2   6.330512 11.225040 17.142837
306  2   5.179561 11.617429 18.538191
307  2   5.848221  8.340733  6.731289
308  2   7.355692  9.366440  6.531507
309  2   5.985039  9.601992  5.392179
310  2   6.774448 12.454064  8.155351
311  2   7.530468 10.967578  8.715250
312  2   6.126563 11.839452  9.609878
313  2   8.563519  7.360501  0.249387
314  2   6.379391  7.545844 18.602247
315  2   8.162502  7.307437 18.051135
316  2   7.369229  7.163112 15.951172
317  2   7.029757  7.896563 14.305650
318  2   7.048998  9.086512 15.784784
319  2  -6.390144 12.393577 14.060755
320  2  -7.847386 13.132323 14.701700
321  2  -7.540510 13.283316 13.007160
322  2   7.880849 10.166230 11.481352
323  2  -7.727396 10.553172 11.171425
324  2  -8.965872 11.882641 11.204624
325  2   7.265981 11.145894 15.265505
326  2   6.417689 10.569362 13.746727
327  2   6.774919 12.301296 13.898273
328  3   2.280591  5.584718  0.770228
329  3  -0.290517  6.955336 18.395824
330  3   1.227599  0.867881  6.853737
331  3   3.968680  1.492972  8.116879
332  3   1.692236  0.425629  9.665732
333  3  16.148871  0.311985 18.224358
334  3  -0.900663  3.964725 19.399034
335  3   3.762907 12.822850 16.216767
336  3  -0.299400  0.320274 12.234394
337  3   0.569948  1.031570 15.086423
338  3   2.026662  2.367944 12.737268
339  3  -2.940272  4.905144  1.901158
340  3  -2.827588  7.713265  0.803622
341  3  -5.663538  9.416907  3.655847
342  3   9.645846  7.773387  5.213097
343  3  11.307750  6.474005  2.932099
344  3  -3.042684  4.550743  9.364983
345  3  -2.101102  4.513731  6.439329
346  3  -0.726586  6.299999  8.479339
347  3  -4.151492  7.362383 10.990390
348  3  14.545842  1.841605 16.235125
349  3  -2.754134  4.705679 13.805119
350  3  -0.521297  5.404054 11.894002
351  3   0.099616  5.088269 14.872970
352  3  -3.497905  5.546820 17.606848
353  3  10.837663  6.153012 17.591811
354  3  -8.963024 13.349822  3.900351
355  3  -6.355888 12.198271  5.708160
356  3  -1.948733  8.151211 15.104780
357  3  -4.487719  9.440852 13.860386
358  3  -6.149622  9.447671 19.117815
359  3  -7.136431 11.608679 17.130924
360  3  -3.479228 13.402163  4.453025
361  3  -4.883371 12.273204  1.984156
362  3   7.629004  0.421427  1.721295
363  3   3.258980  2.585809  3.572848
364  3   5.445999  2.452717 12.857372
365  3   6.834967  2.973673  5.503495
366  3   5.707102  5.382359  4.166533
367  3   8.351601  4.369941  3.273858
368  3   5.334765  4.498177 10.208055
369  3   4.690465  5.423826  7.415394
370  3   2.524386  5.189959  9.938944
371  3   1.560469  4.964569  6.353597
372  3   0.007860  4.317058  3.921638
373  3   4.726952  3.039206 16.373586
374  3   3.368020  6.125488 13.548702
375  3   2.942796  6.081903 16.676678
376  3   0.773985  9.315300  1.329736
377  3  -1.122913 11.228083  2.302481
378  3  -0.641193  9.453502  9.077906
379  3   2.194284  6.654322  3.993310
380  3   1.874751  8.720776  7.398208
381  3   2.095719 10.129733 10.035222
382  3  -4.049317 12.835651  8.556283
383  3  -5.598210 12.725821 10.961097
384  3  -1.108595 11.026219  6.133699
385  3  -0.883723 13.531615  7.493901
386  3  -1.054517 11.319264 16.864938
387  3  -3.711401 12.273428 18.115191
388  3  -1.054064 10.599544 12.888618
389  3  -0.379943 12.676167 10.898799
390  3  11.923067  1.871561  2.858669
391  3  12.210466  2.717214 18.859640
392  3  15.512295  1.416917  8.650804
393  3   2.728449 13.555662  8.673653
394  3   8.376992  1.500914 10.320542
395  3  11.949635  4.306129  6.046794
396  3  10.377853  2.029070  6.023164
397  3   8.406715  1.475506 17.516624
398  3   4.132572  2.007063  0.753042
399  3  13.063570  2.022501 11.407532
400  3  12.535979  0.165788 13.565497
401  3   8.889391  4.631280  8.458638
402  3   5.169501  9.130850 11.489749
403  3   4.314810  8.217685 15.368423
404  3   8.561137  4.212069 19.432624
405  3   6.392354  4.859098  0.021091
406  3   7.018594  7.965839  9.399940
407  3   8.077447  6.124012 12.711099
408  3   5.378944 11.147582  1.798435
409  3   6.244515  8.416631  2.676658
410  3  -8.329625 12.665425  0.083585
411  3  14.541949  0.551703  2.179252
412  3   5.909986 10.915993 18.189206
413  3   6.294527  9.341184  6.434252
414  3   6.617969 11.571926  8.678926
415  3   7.349316  6.970407 18.761409
416  3   7.454157  8.112825 15.316866
417  3  -7.452683 12.539870 13.843201
418  3  -8.701719 10.942093 11.664535
419  3   7.186050 11.267830 14.162306
420  4  -0.466623  6.370716  1.451012
421  4  -4.833879  7.315301  5.460726
422  4  -3.428041  6.733363  7.537255
423  4  -0.726004  2.861648 13.271584
424  4  -6.260508  8.187452  9.344283
425  4  -4.604981  9.065351  7.348604
426  4  -8.948406 11.542029  6.124911
427  4  -6.984363 10.267442  7.759887
428  4  -7.642252 12.836293  8.031341
429  4  -4.574967  7.551583 16.024601
430  4   5.225677  0.678778  2.985999
431  4   7.197507  0.950240 14.334162
432  4   5.964708  3.115886  2.763172
433  4  -2.086847  7.101010  3.380487
434  4  -2.484890  8.290883  5.718901
435  4  -0.328912  6.787739  5.226963
436  4   6.966213  3.581559 14.831959
437  4   5.444255  5.632190 15.358463
438  4  -0.531216  9.046853  4.089393
439  4  -4.988325 10.440625  9.589568
440  4   1.067998 11.356912  7.760668
441  4  -3.595477 10.099058 16.300352
442  4  -3.086463 12.608821 15.455523
443  4  -3.029911 11.627501 10.973595
444  4  -2.143038 13.211153 13.038797
445  4  13.320741  0.255195 18.217328
446  4  12.321872  0.345360  0.495453
447  4   8.233057  2.891161 12.697429
448  4  13.082664  1.738026  6.883812
449  4   9.480526  0.388924 15.120404
450  4  10.895005  0.725619 17.294773
451  4  10.454526  1.688119 12.302355
452  4  10.008440  3.725534 10.810332
453  4  11.309635  3.125118  8.531872
454  4  11.410447  5.546857  9.618081
455  4   4.374357  7.189431  9.637219
456  4  10.294307  2.927657 15.771504
457  4  12.067725  2.951855 13.850427
458  4  12.171722  4.948984 15.568206
459  4   7.074083  4.627378 17.146157
460  4  10.611352  6.943077 11.855724
461  4  10.394771  4.824530 13.701420
462  4   7.464210 10.770819  3.691585
463  4   1.376253 10.857753  3.626944
464  4   1.721412 13.232517  2.890502
465  4   1.009681 12.698086  5.412489
466  4   8.452823  9.894759 18.419454
467  4   7.868555 10.226022  1.114330
468  4   4.874639  9.617487  8.723648
469  4   6.061908 12.641117  5.076979
470  4   3.428200 12.210925  4.604375
471  4   4.597882 11.493592  6.829521
472  4   4.146702 13.968367  6.374297
473  4   9.999880  7.328291 14.472038
474  4  -7.487816  8.881487 16.613599
475  4  -7.853104  9.769237 14.089853

