Generated by pymatgen.io.lammps.data.LammpsData

433  atoms

  4  atom types

0.000000 17.206700  xlo xhi
0.000000 13.406345  ylo yhi
0.000000 19.105368  zlo zhi
-8.375945 2.851161 -0.990127  xy xz yz

Masses

1  28.08550
2   1.00794
3  12.01070
4  15.99940

Atoms

1    1  2.760992  0.597590  2.192341
2    1 15.926921  2.170662  3.237978
3    1  1.027387  2.027307 -0.000000
4    1  3.893373  0.222654  8.720836
5    1 -3.035530 12.600699 14.448817
6    1  1.415529  1.660604 17.384548
7    1  4.170233  1.845092 13.516857
8    1  0.017040  4.376556  1.711459
9    1 12.703340  6.553153  3.634605
10   1  3.256166  3.912210 15.736519
11   1 -1.704967  6.032507 17.284436
12   1  1.274263  5.361724 13.829612
13   1 -0.948678  7.379619  8.058835
14   1 -1.226527  7.009971 14.456841
15   1 -4.558614 10.607855 16.220649
16   1  1.532560 12.728339  3.120671
17   1  0.706907 12.756973  7.602217
18   1  5.607502  1.687213 10.789375
19   1  7.927597  1.755713  6.063280
20   1  5.539523  4.226326  0.357461
21   1  4.864740  7.149584  4.072118
22   1  8.194638  6.026113 18.424453
23   1  6.902003  3.516787  8.528254
24   1  2.714633  5.628414 11.107479
25   1  5.336621  5.981981 17.291887
26   1  4.655792  8.941241  1.639814
27   1  0.820343 10.145649  4.687502
28   1  2.697234 11.142651  0.660282
29   1 -0.441022 10.244863  8.935008
30   1  5.952240  8.487955 15.676528
31   1  2.584725  9.585791 18.685241
32   1  3.752142  9.765853 13.901830
33   1 14.898297  0.108630  1.315978
34   1 10.470422  2.168663  4.254383
35   1 16.075092  1.529475 19.092186
36   1 13.907031  0.879831  8.513925
37   1 12.305760  2.707526  6.658985
38   1 16.803816 -0.200373 15.553871
39   1 13.493142  0.700102 17.792065
40   1 14.777804  1.571759 13.987231
41   1 11.387185  4.211546  2.052490
42   1 13.022191  5.367212 19.008695
43   1 10.689174  7.202439  5.846052
44   1 10.833091  5.812530 17.030525
45   1 11.408766  6.720968 12.376267
46   1  9.087729  9.067154  0.909798
47   1  5.881848 11.262947  3.155825
48   1 10.441690 10.359285 18.440502
49   1 11.541388  7.973176 15.223349
50   1  7.600418 10.622664 17.399068
51   1  9.154142 11.609992 12.973882
52   2  4.316388  2.454968  3.122390
53   2  3.198143  1.829829  4.343414
54   2  2.561242  2.929678  3.194991
55   2 -5.601229 13.021390  4.561789
56   2 -5.600956 11.731176  3.412983
57   2 -7.141329 12.691286  3.719242
58   2 -4.426968 12.569664  0.804336
59   2 -3.288973 13.258825  2.132541
60   2  4.552042  0.764373  0.663338
61   2  0.859262  1.936070  4.525871
62   2 16.472471  1.194693  5.322756
63   2 -0.325515  2.995131  5.331162
64   2  4.874270  0.747496 16.952575
65   2  6.135770  1.141876 18.176847
66   2  5.163383  2.433511 17.456384
67   2  2.940984  1.392045  6.812592
68   2  3.752202  2.504426  7.797092
69   2  2.075172  2.050598  8.356306
70   2 -6.753687 12.849389  8.840436
71   2 -5.484795 11.622295  9.673621
72   2 -5.671707 11.623847  7.913061
73   2  6.170115  0.428191  7.866826
74   2  4.885262 -0.159418  6.483025
75   2 -2.737425 12.205227  7.696789
76   2 -0.799298 11.490752 15.155716
77   2 -1.353491 12.547089 16.458511
78   2  7.675813 -0.162359 14.841050
79   2 -1.882319 11.578311 12.379706
80   2 -3.550277 12.136530 11.986899
81   2 -3.251613 10.757236 12.988976
82   2  1.829725  1.356640 13.748223
83   2  2.774848  0.079818 13.124815
84   2  2.218478  1.298177 11.994541
85   2 -2.068197  5.395552  0.935781
86   2  2.228501  4.387647 18.762236
87   2 -0.730065  6.551667  1.042771
88   2 -2.464195  7.583974  4.389840
89   2 -2.172848  6.555602  3.095834
90   2 -2.437035  5.773183  4.741570
91   2 -4.296411  8.794282  2.764738
92   2 11.300501  7.931259  2.559737
93   2 12.615105  7.528503  1.429846
94   2 -1.829387  7.827892 18.911449
95   2 -0.824114  8.384799 17.607507
96   2 -0.159667  7.219943 18.742748
97   2 -0.521232  4.065015 16.466535
98   2 -0.303910  4.434410 18.242761
99   2  0.707918  5.430055 17.115735
100  2  1.008745  3.192095 12.661892
101  2 -0.578452  4.036008 12.941594
102  2  0.258400  3.310142 14.385960
103  2 -1.150322  7.193436 10.520944
104  2 -0.344855  5.788424  9.828184
105  2 -2.050873  5.759644  9.633309
106  2 -0.126787  6.679923  5.870698
107  2 -0.573720  5.297043  6.965244
108  2  1.009966  6.105670  7.131652
109  2 -3.184349  6.678326  6.915570
110  2 -2.681121  8.422545  6.748971
111  2 -3.343107  7.927202  8.243775
112  2 14.094756  6.050683 13.325039
113  2 -1.490379  5.848645 12.427469
114  2 -2.223137  7.472663 12.482301
115  2 -2.969616 11.174335 17.916441
116  2 -2.298976 10.122157 16.763623
117  2 -3.351872  9.207561 17.925421
118  2 -0.935299 12.832013  3.432853
119  2 -0.392992 12.704940  1.745849
120  2  8.121296  0.792711  2.641317
121  2  9.992288  1.055995  9.062249
122  2  9.256181 -0.331153 10.037387
123  2  8.274058  1.037448  9.241649
124  2  2.759015 11.768243  7.974963
125  2 11.335794  0.049713  7.336844
126  2  2.510646 12.246593  6.117348
127  2  7.994432  1.557728 11.339991
128  2  7.304886 -0.061134 11.203770
129  2  7.012156  0.873832 12.706598
130  2  6.376778  2.767109  4.554720
131  2  5.477373  2.013458  5.839365
132  2  6.132932  0.986955  4.488615
133  2  3.741374  4.706192  1.900793
134  2  3.457856  3.121965  1.029015
135  2  3.064603  4.700130  0.258687
136  2  8.460907  1.205996 18.002798
137  2  9.615874  2.333677 17.481412
138  2  7.973219  2.777515 17.052879
139  2  7.703191  4.020160  1.513336
140  2  7.121940  2.336004  0.991760
141  2  6.428482  3.021703  2.373842
142  2  1.108882  4.690979  3.873231
143  2  0.272219  6.113895  3.302172
144  2  1.980003  5.839767  2.703983
145  2  3.303319  5.303099  4.758192
146  2  2.512759  6.829806  4.898043
147  2  3.777875  6.544732  6.094230
148  2  6.658552  5.926949  2.933438
149  2  5.354299  4.852376  3.353565
150  2  6.429621  5.456300  4.632097
151  2  6.128477  7.700828  6.139510
152  2  5.078813  8.977659  5.565012
153  2  6.718356  8.614719  4.817992
154  2  6.475811  5.442558  7.072807
155  2  5.020877  5.080491  8.388785
156  2  5.179326  4.229484  6.758524
157  2  7.678235  4.848539 10.375934
158  2  8.761880  5.068894  8.884187
159  2  8.879586  3.670842 10.020575
160  2  2.341410  3.158041 10.711425
161  2  2.921034  4.135319  9.196369
162  2  1.217831  4.233194  9.770485
163  2  4.897736  6.585199 11.679685
164  2  5.045372  5.033818 10.818224
165  2  4.638647  5.080913 12.617949
166  2  2.720762  8.068111 10.168259
167  2  1.579153  6.957592  9.445312
168  2  3.350647  6.883905  8.950292
169  2  3.584914  6.613028 18.843816
170  2  2.123367  8.121928  0.399111
171  2  1.829055  6.380978  0.546605
172  2  1.907529  8.403807  3.395788
173  2  0.931336  9.425620  2.304490
174  2  0.022299  8.242802  3.426739
175  2  1.532207  8.365942  6.242488
176  2  1.787008  9.990124  7.005556
177  2  2.937364  9.497277  5.712696
178  2 -1.364667  9.397079  5.209270
179  2 -1.478575 10.738468  4.040976
180  2 -1.262325 11.000699  5.743074
181  2 -2.972419 10.143272  8.766307
182  2 -2.398230 11.400565  9.937275
183  2 -2.300519  9.644034 10.411279
184  2  5.776469  6.623777 13.992963
185  2  7.409511  6.788128 14.595928
186  2  6.684865  8.015384 13.273264
187  2 -0.228729  9.128535 15.256974
188  2 -1.988131  9.259648 14.768068
189  2 -0.614789  9.203916 13.463553
190  2  1.909871  7.273038 17.749269
191  2  3.019491  8.182571 16.568749
192  2  1.307338  8.508654 16.865455
193  2  1.277903 11.670096 18.977171
194  2  0.750190 10.768932 17.688705
195  2  2.220739 11.663920 17.339841
196  2 -1.148659  8.883990  1.114798
197  2 -2.258553 10.234723  0.819047
198  2 -0.966173 10.431064  1.968808
199  2  0.278283 10.960893 11.304646
200  2  1.622019 10.872411 10.112089
201  2  0.832890  9.306464 10.680283
202  2  1.971372  8.410993 12.869949
203  2  1.971926  8.364940 14.614843
204  2  3.342494  7.506374 13.779747
205  2  2.196061 11.197561 15.096107
206  2  1.868232 11.182509 13.430883
207  2  3.177042 12.253076 13.923610
208  2  4.587980 11.063216 11.999891
209  2  3.599043  9.766137 11.418132
210  2  5.234795  9.375049 12.129998
211  2 14.550122  2.954707  9.844041
212  2 15.380422  2.965154  8.224861
213  2 15.863849  1.823552  9.537400
214  2 11.925697 -0.110350  9.429455
215  2 12.329332  1.354687 10.278115
216  2 13.286105 -0.257015 10.559919
217  2  5.946149 11.772848  8.250844
218  2  7.457499 12.795558  8.409801
219  2  6.647459 12.809589  6.850803
220  2 14.115274  1.925767  4.688457
221  2 13.508528  2.220341  3.019221
222  2 14.152102  3.579924  4.055688
223  2 13.655204  4.450549  7.622660
224  2 12.892422  4.841438  6.009212
225  2 14.500346  3.800850  6.120214
226  2 11.494931  3.144717  8.857631
227  2 10.177183  2.614342  7.756015
228  2 10.708043  4.279927  7.727930
229  2 13.845378 -0.812727 15.705568
230  2 12.082843 -0.630148 16.254274
231  2  4.836642 11.770285 17.225018
232  2 11.877603  1.826728 16.439978
233  2 13.352465  2.896017 16.918568
234  2 12.034377  2.582814 18.078073
235  2 10.667256  0.984594  1.049649
236  2  8.981338  0.644906  0.166981
237  2  9.390052  2.375717  0.670407
238  2 15.289091  2.522490 11.776358
239  2 15.121687  0.714467 11.813422
240  2 16.619866  1.400038 12.432245
241  2 13.470409 -0.294634 13.588120
242  2 12.610098  1.172989 12.816645
243  2 12.553605  0.798596 14.572238
244  2 14.188198  4.035810 13.659383
245  2 14.874941  3.792869 15.289453
246  2 13.277843  3.250317 14.883273
247  2  8.966714  5.927749  4.420982
248  2  8.256993  6.361301  6.012077
249  2  9.504289  4.975640  5.843568
250  2 11.823271  6.327511  7.848867
251  2 10.137910  6.804507  8.187797
252  2 11.526392  8.086995  8.042214
253  2  9.265519  8.888476  4.846459
254  2 10.804363  9.665522  5.197998
255  2  9.513467  9.276445  6.489329
256  2  9.712893  3.971164 15.969986
257  2 11.301655  3.936542 15.393768
258  2 10.134099  5.110543 14.697760
259  2 12.992564  7.101061 10.557244
260  2 12.913249  8.516098 11.599824
261  2 11.716922  8.293406 10.391983
262  2  9.326509  7.978072 11.897868
263  2  8.911810  6.455046 12.633807
264  2  9.396979  6.526819 10.985014
265  2 12.905273  4.786187 11.744643
266  2 11.179983  4.546153 11.290508
267  2 11.781559  4.425221 13.088515
268  2  8.836234  7.609358  2.821290
269  2  7.372313  7.471075  1.756739
270  2  7.700309  8.897859  2.862366
271  2 -6.111248 10.104384  1.174025
272  2 10.310428 10.090191  2.743913
273  2  9.857889 11.286002  1.515820
274  2  8.385117 11.090966  3.367512
275  2  7.557993 10.687845  4.937591
276  2  7.721548 12.375716  4.497595
277  2  4.186248 12.498489  4.441234
278  2  4.952900 11.243945  5.423823
279  2  3.735837 10.771033  3.992067
280  2 17.984450 -0.049454 11.087036
281  2  8.010974 12.536741 11.029147
282  2  9.388183 11.609572 10.661560
283  2  7.659396 10.126626 14.116384
284  2  7.770245  9.614103 12.411611
285  2  6.835654 11.089388 12.741752
286  2  9.329285  8.293372 16.081180
287  2  9.093857  8.327390 14.402964
288  2  9.754126  9.727948 15.225641
289  2 11.493518 11.069989 12.228773
290  2 10.648605  9.613586 12.799259
291  2 11.216244 10.834752 13.940423
292  3  3.293092  2.137918  3.251543
293  3 -6.053354 12.773975  3.572322
294  3  4.272389 -0.041636  1.377688
295  3 -0.221322  2.043980  4.774432
296  3  5.147499  1.390385 17.792256
297  3  3.029312  1.672097  7.906948
298  3 -5.757953 12.309071  8.825725
299  3  5.293940 -0.143661  7.531909
300  3 -1.299437 12.446033 15.345623
301  3 -2.891428 11.696818 12.798877
302  3  2.612530  1.111067 13.043999
303  3 -0.984395  5.536573  0.685119
304  3 -2.726792  6.536291  4.027221
305  3 12.387566  7.890909  2.451028
306  3 -1.088129  7.488013 18.247155
307  3 -0.267233  4.881148 17.202092
308  3  0.420401  3.795889 13.420375
309  3 -1.182130  6.480147  9.668654
310  3 -0.058710  6.261583  6.852331
311  3 -2.635017  7.588138  7.416322
312  3 -2.156663  6.522205 13.014195
313  3 -3.198765 10.184829 17.378052
314  3 -0.229728 13.138987  2.680674
315  3  9.134726  0.347079  9.134468
316  3  2.470662 12.490724  7.190879
317  3  7.130859  0.918671 11.561996
318  3  6.286725  1.848505  5.095402
319  3  3.735819  4.189875  0.939220
320  3  8.563640  2.320757 17.831613
321  3  6.855194  3.359563  1.405964
322  3  0.960406  5.351852  3.002600
323  3  3.465255  6.399736  5.035029
324  3  5.979408  5.715510  3.699564
325  3  5.798706  8.260640  5.250346
326  3  5.772547  4.708721  7.597441
327  3  8.221068  4.358148  9.553066
328  3  2.259947  4.114230 10.092220
329  3  4.510172  5.573559 11.633068
330  3  2.637648  7.055218  9.822452
331  3  4.625873  6.285640 19.004301
332  3  0.922401  8.925317  3.349171
333  3  1.859604  9.438556  6.061942
334  3 -1.020913 10.365581  4.934535
335  3 -2.202870 10.366497  9.542176
336  3  6.535705  7.414311 14.223947
337  3 -1.004279  8.867695 14.498109
338  3  2.255820  8.272926 17.347483
339  3  1.693634 11.096745 18.127938
340  3 -1.182941  9.972122  1.009910
341  3  0.654097 10.380958 10.424653
342  3  2.666513  8.408236 13.797515
343  3  2.658908 11.268315 14.113709
344  3  4.325469 10.040627 12.180054
345  3 15.010606  2.257095  9.035884
346  3 12.747237  0.451079  9.890467
347  3  6.457162 12.672594  7.936943
348  3 14.209413  2.492043  3.793562
349  3 13.466082  4.106748  6.573584
350  3 11.061659  3.247882  7.893956
351  3 13.126948 -0.765431 16.588236
352  3 12.585080  2.165837 17.207059
353  3  9.847381  1.383694  0.356506
354  3 15.548306  1.597107 12.401295
355  3 13.207487  0.760060 13.696448
356  3 14.280501  3.304380 14.468686
357  3  9.234966  6.035332  5.552784
358  3 11.075907  7.097399  7.663354
359  3 10.063455  8.927242  5.565203
360  3 10.493133  4.603775 15.618830
361  3 12.338119  7.742233 11.111873
362  3  9.619753  6.934016 11.964546
363  3 11.887721  4.910805 12.128661
364  3  8.136995  8.180152  2.214312
365  3 10.201711 10.281810  1.695410
366  3  7.568262 11.363062  4.028176
367  3  4.543378 11.440463  4.389458
368  3  9.096612 12.378247 11.311715
369  3  7.710785 10.490607 13.071320
370  3  9.814917  8.610062 15.190678
371  3 10.810716 10.705369 12.991268
372  4  1.517051  0.928902  1.105055
373  4  2.502272  0.861881 18.330837
374  4  4.952279  0.693437 14.255088
375  4 -1.000377  3.459004  2.443959
376  4  0.930374  3.448992  0.782365
377  4  2.241741  2.917347 16.657015
378  4  4.046258  3.088793 14.577587
379  4  2.464517  5.057403 14.856525
380  4 -1.946409  6.520026 15.795745
381  4  0.237311  6.420289 14.476329
382  4 -4.220525 11.858152 15.263088
383  4  4.609445  0.643769 10.125081
384  4  4.836330  2.337636 12.096755
385  4  8.290530  0.221258  6.486846
386  4  5.804538  5.753272  0.187424
387  4  6.036583  2.751467  9.652605
388  4  7.664173  2.529901  7.491788
389  4  1.788804  5.878308 12.429379
390  4  4.477668  4.707937 16.617467
391  4  6.858429  5.641439 17.574264
392  4  4.316224  7.796412  2.727482
393  4  5.101081  8.291556  0.292312
394  4  1.432292 11.540300  4.131536
395  4  3.365781  9.822482  1.328587
396  4  2.404697 12.212605  1.811571
397  4 -0.332487  8.821101  8.265173
398  4 -0.157892 11.393040  7.888798
399  4  5.170801  7.327948 16.482774
400  4  4.205772  9.797185 18.980610
401  4  4.887507  9.515584 15.049872
402  4 15.889849  0.913856  2.230934
403  4 10.605895  0.620148  3.813623
404  4  9.089810  2.374241  5.119857
405  4 17.391252  2.124438 18.344784
406  4 13.771714  1.151919  0.720846
407  4 11.744303  2.466371  5.204684
408  4 13.054328  1.384502  7.294430
409  4 17.985899  0.621507 16.338911
410  4 15.044814  1.044954 17.987895
411  4 15.587234  0.793253 15.184947
412  4 10.496631  3.191998  2.983685
413  4 12.460612  3.421732  1.106583
414  4 12.218019  5.146475  3.054184
415  4 14.209248  5.323568 17.921027
416  4 10.456763  5.212992  1.129127
417  4 11.995845  6.888093  4.994334
418  4 11.668734  5.122063 18.223847
419  4  9.435382  6.351074 17.524399
420  4 10.072080  7.913457  0.383636
421  4  5.730437  9.950237  2.249657
422  4  5.739555 12.413527  2.171898
423  4 11.327905 10.862849 17.162161
424  4 11.069507  9.015036 19.027609
425  4  7.388955 12.657627  0.271105
426  4 11.598345  7.009002 16.454498
427  4 11.822708  7.193935 13.866485
428  4 12.482289  9.241615 15.416122
429  4  7.044142  9.373007 16.517928
430  4  8.978227 10.083711 17.960766
431  4  7.884850 11.932061 16.426414
432  4  6.619913 10.827680 18.712562
433  4  9.095146 12.658875 14.205797

