Generated by pymatgen.io.lammps.data.LammpsData

447  atoms

  4  atom types

0.000000 15.975800  xlo xhi
0.000000 14.574368  ylo yhi
0.000000 20.686182  zlo zhi
-9.274529 0.126669 -1.148011  xy xz yz

Masses

1  28.08550
2   1.00794
3  12.01070
4  15.99940

Atoms

1    1 13.728509  2.611004  6.520698
2    1 -6.502816 13.052432 10.172637
3    1 -6.713752 12.961305 15.105257
4    1 -1.310049  2.762709 16.891716
5    1  0.730933  3.238574  6.504977
6    1 -1.462998  7.561765  4.887317
7    1 -3.120240  6.881238 19.242907
8    1 11.339032  6.423824 11.814706
9    1 -1.292784  7.880834  7.988176
10   1 -0.836262  5.690494 16.110192
11   1 10.866800  6.570017 16.951292
12   1 -2.505120  6.964957 13.902769
13   1 -5.754454 11.281809 19.166989
14   1 -3.497957  8.720217  9.962258
15   1  8.195243 10.809296 11.737753
16   1 -5.029371 10.868571  8.503055
17   1 -4.070556  8.986875 15.467679
18   1 -5.198054 11.042962 13.396785
19   1  5.446900  1.979422  5.285113
20   1 -1.419773 13.348469  9.940952
21   1  3.823304  0.913897 11.726997
22   1 -1.870316 13.254201 15.324117
23   1  6.148600  1.003280 13.685357
24   1  4.346838  2.882849  2.599219
25   1  0.812764  8.766743  0.307810
26   1  5.821940 10.899231  5.418952
27   1  5.397282  2.714477 16.195626
28   1 -0.474019  7.880207 18.322993
29   1 -0.902394 11.035447  1.375631
30   1 -1.607745 11.794812 19.842186
31   1  5.032237  7.966153  5.366202
32   1 -2.450229 10.963125 11.804777
33   1  0.400428 13.302075  7.573004
34   1  0.839033  9.983891 16.557841
35   1 -3.225080 11.222461 17.371221
36   1 -0.150043 11.162943 13.939797
37   1 12.424794  2.885856  3.821358
38   1 -1.352018  2.185100  1.768048
39   1  8.723603  1.211169 11.796088
40   1 12.851889  2.604967  9.455240
41   1  8.299835  6.006499 18.748921
42   1 10.183298  3.715414 10.520992
43   1  6.062216  6.136898 12.126447
44   1  9.563475  5.238490  7.893847
45   1 10.056606  4.468536 14.910807
46   1  5.655661  5.521047 17.199112
47   1  8.806522  6.688929 13.161997
48   1  7.116405  8.559399  0.485505
49   1  2.417340 10.590538 12.131618
50   1  2.746127 12.216773 17.178633
51   1  5.302324 11.425972 12.995060
52   2 13.045383  0.241742  6.621440
53   2 14.795607  0.536810  6.885189
54   2 14.282377  0.590146  5.243947
55   2 -7.871972 13.520810  8.101329
56   2  2.657674  0.082059  8.348529
57   2  1.146972  0.167544  9.528883
58   2  0.361614 -0.601119 14.726286
59   2 -8.038887 13.811831 13.062703
60   2  1.697212  0.470937 14.209545
61   2  4.038220  0.165874 15.630686
62   2  4.134078 -0.883743 16.806695
63   2  2.727985  0.077259 16.891302
64   2 -6.541789 11.045581 16.382836
65   2  8.165628 10.872746 15.024788
66   2  7.828985 11.796189 16.731605
67   2 -0.334809  0.954955 18.266933
68   2  0.403264  2.660324 18.568538
69   2  1.010080  1.743543 17.230142
70   2 -1.993407  2.759334 14.565348
71   2 14.417665  1.151259 15.018582
72   2 -0.228075  2.232987 14.590171
73   2  2.262666  2.160795  4.973992
74   2  0.619141  2.223132  4.368094
75   2  1.006969  0.949666  5.593750
76   2  1.282522  3.838232  8.856789
77   2  2.257856  2.515645  8.233721
78   2  0.507078  2.099306  8.755427
79   2 -3.276434  7.812246  3.160228
80   2 -3.298124  9.168472  4.356303
81   2 -4.066785  7.750862  4.844083
82   2  0.165960  8.964008  3.552438
83   2  0.797051  8.249519  5.050324
84   2 -0.142739  9.778088  5.060668
85   2  2.698084  4.583516  6.507252
86   2  1.278897  5.727930  6.446228
87   2  1.967510  4.803415  4.942549
88   2 -3.082455  4.555883 20.227983
89   2 -2.141777  6.920063  0.399036
90   2 -1.365573  4.933669 19.644633
91   2 -5.059731  8.275854 20.151651
92   2 -3.984214  9.125889  0.756287
93   2 10.982989  7.758120  0.091226
94   2 -1.027225  5.570078  8.557873
95   2 -0.849416  6.632385  9.994736
96   2  0.471057  6.448915  8.633999
97   2  0.783590  9.048880  7.393655
98   2  0.119894  9.722367  9.061168
99   2 -0.578606 10.201572  7.372555
100  2  1.094722  6.051573 14.538456
101  2  0.384694  4.498033 14.229611
102  2  1.497902  4.938516 15.599657
103  2 -0.288199  7.771014 13.467739
104  2 -1.186577  7.940603 12.011225
105  2 -0.580554  6.242463 12.469630
106  2 -4.729274 12.882881  0.480333
107  2 -4.146512 10.170012 20.276389
108  2 -5.650522 11.327584  0.746771
109  2 -7.352298 12.711914 20.355410
110  2 -7.544382 12.988604 18.665556
111  2  3.149845 -0.801202 19.526515
112  2 -6.053425  9.343814 18.017458
113  2  8.255731 10.087362 18.157296
114  2  8.886547  9.320680 19.581954
115  2  7.421422  9.813745  9.736158
116  2  7.429980  8.734760 11.149852
117  2  8.997351  9.063506 10.310407
118  2 -7.002879 11.224556  7.080880
119  2  9.145979  9.497735  7.541355
120  2 -5.733126 10.194344  6.257984
121  2 -3.288702 10.256449  6.924699
122  2 -2.730528 11.505096  8.016102
123  2 -3.752882 12.024150  6.701909
124  2  7.815916  1.652083  5.663256
125  2  7.325656  2.745512  4.220395
126  2  7.305262  0.934888  4.000708
127  2  5.729762  2.353594  7.807999
128  2  4.166951  2.617109  7.188035
129  2  5.387017  3.950021  6.863468
130  2 -4.542423 14.203985  4.475869
131  2  3.674927  0.342909  5.751793
132  2  5.224093 -0.242304  6.283221
133  2  6.941966  0.064328  8.163802
134  2  6.048544  0.103840  9.728711
135  2 -3.586260 13.391600  8.672682
136  2  4.445958  1.637764  9.440346
137  2  5.713218  2.188109 10.548298
138  2  4.199965  3.030071 10.495755
139  2  1.318449  1.039655 11.913793
140  2  1.929786  2.454756 11.079933
141  2  2.163262  2.392604 12.853773
142  2  7.786489 -0.585097 17.612629
143  2  8.043328  0.779015 16.434344
144  2  9.342483 -0.480693 16.684647
145  2  3.073802  4.542170  1.214693
146  2  4.052090  5.387113  2.516060
147  2  2.599289  4.652690  2.894617
148  2  4.089429  0.503228  2.182806
149  2  3.312946  1.492000  0.879370
150  2  2.424108  1.337656  2.518129
151  2  6.551119  3.947148  2.434970
152  2  5.769955  3.468859  0.808623
153  2  6.543865  2.102849  1.842518
154  2  0.492968  6.229021  0.626171
155  2  1.115094  7.217663  2.190253
156  2  2.123628  6.871145  0.807795
157  2  4.195778 12.573712  4.816984
158  2  3.332806 10.895459  5.061495
159  2  4.218193 11.386254  3.529063
160  2  7.469150 12.645901  4.876561
161  2  7.058896 11.677784  3.383846
162  2  8.091156 11.001707  4.793609
163  2  6.693861 10.816236  7.754836
164  2  4.843920 11.145366  7.654301
165  2  6.035499 12.461641  7.458817
166  2  5.754113  0.592470 17.497821
167  2  4.900173  1.703744 18.393739
168  2  6.702549  2.000580 18.255349
169  2  2.964416  2.885064 16.824692
170  2  3.243380  2.051854 15.225237
171  2  3.534759  3.861983 15.438098
172  2 -1.813515 11.042867  3.721030
173  2 -2.830893  9.959543  2.497443
174  2 -2.917057 11.759602  2.608114
175  2  0.878623 11.288401  2.876207
176  2  0.076920 12.983430  2.473861
177  2  1.288155 12.178831  1.243860
178  2  7.156188 -0.377408 20.212468
179  2 -2.919199 14.298676  0.931292
180  2 -3.645613 13.302147 20.032912
181  2  4.165037  8.388208  3.018735
182  2  2.940806  8.694621  4.230945
183  2  3.183580  7.079791  3.878866
184  2  0.247834 12.930389  5.086732
185  2 -1.299305 13.703719  5.748276
186  2 -0.954909 11.987657  6.004371
187  2  5.007258  8.236809  7.677056
188  2  3.796494  6.931351  7.270572
189  2  3.356921  8.675301  7.034543
190  2  2.588723 12.868320  6.512424
191  2  2.006826 11.451536  7.261057
192  2  2.709276 12.666012  8.248615
193  2 10.863671  0.633855  8.555805
194  2  9.273443  1.120235  7.875023
195  2 10.571270  0.903949  6.790446
196  2  2.759988  9.530282 15.056644
197  2  1.675689  8.063897 15.325565
198  2  2.723455  8.604466 16.717331
199  2 10.988618  3.916195  2.210112
200  2 12.041649  5.194710  2.981293
201  2 10.635160  4.502231  3.890864
202  2 10.825587  1.092181  4.559441
203  2 12.253432  0.439341  3.945889
204  2 11.053807  1.098940  2.767397
205  2 12.665175  1.346670 17.214627
206  2 12.417363  3.158175 16.998249
207  2 12.922738  2.546379 18.539163
208  2 -0.521349  4.262261  0.966665
209  2  0.554363  2.912390  0.504329
210  2  0.647917  3.467489  2.180530
211  2 14.124223  0.362224 20.199643
212  2 12.920835  2.983611  0.032477
213  2 12.643413  1.296054  0.680989
214  2 -0.009476  0.060570  1.390318
215  2  5.596609 14.389107  2.679067
216  2  0.302735  0.747067  2.907443
217  2 11.034946  0.952570 12.498177
218  2 10.217948 -0.540198 12.777648
219  2  9.968050  0.750065 13.920146
220  2 12.948201  0.603671 10.756815
221  2 14.493204  0.690796  9.848691
222  2 12.922563  0.145115  9.076890
223  2 -1.858451  3.365797 11.547441
224  2 -2.409674  4.600378 10.549746
225  2 -1.001394  3.759820  9.909922
226  2  7.776496  3.750134 20.098074
227  2  9.357144  4.411749 20.309280
228  2  8.995729  3.742863 18.758437
229  2  5.433889  4.901740 14.145625
230  2  6.388100  3.881998 12.952860
231  2  4.597131  4.282372 12.655806
232  2  5.808301  6.565042  9.674514
233  2  4.811327  5.265142 10.218353
234  2  6.473483  4.889815  9.867102
235  2  4.044521  7.430343 12.589197
236  2  5.276361  8.250633 11.537925
237  2  5.494000  8.119846 13.303697
238  2  0.090816  5.736170  4.136409
239  2 -1.178033  6.264812  3.001358
240  2 -1.779781  5.213697  4.312035
241  2 11.740193  5.175710  6.771829
242  2 11.931727  5.705503  8.423413
243  2 11.284522  6.895532  7.175416
244  2  8.939547  4.787457  5.584649
245  2  7.935539  3.805304  6.918494
246  2  9.622438  3.462141  6.326455
247  2  7.388904  6.546764  8.126153
248  2  8.720861  7.291504  7.065365
249  2  8.843551  7.306735  8.878716
250  2  9.668438  2.511347 16.184455
251  2  8.230999  2.921482 15.209929
252  2  8.597040  3.833445 16.666650
253  2 10.869399  2.988117 13.160963
254  2 11.516129  2.648099 14.831165
255  2 12.129752  4.188181 13.980136
256  2  3.905218  6.647460 15.842099
257  2  5.608022  7.101336 15.379349
258  2  4.891476  7.808520 16.825727
259  2  4.711796  4.441140 19.243941
260  2  3.418423  5.121767 18.301065
261  2  4.633227  6.256586 19.229668
262  2  3.001033  9.544697  1.258961
263  2  2.340948  9.599154 20.614815
264  2  3.205659  8.143496 20.125793
265  2  9.198767  8.490793 14.849989
266  2  7.751002  7.583730 15.245716
267  2  7.688354  8.791416 13.902769
268  2  6.340010  6.137337  0.652649
269  2  4.904290  7.256248  0.581075
270  2  5.952105  7.081223  2.088270
271  2  6.561173 11.004701  0.327669
272  2  5.401894 10.013190  1.323295
273  2  5.467605  8.669710 20.237292
274  2  9.003357  7.751049  1.873134
275  2  8.027983  8.973874  2.707614
276  2  9.086376  9.495057  1.334052
277  2  6.702700  6.668431  4.140132
278  2  5.465882  5.532085  4.825259
279  2  6.771152  6.253148  5.900733
280  2  2.009584  8.217777 12.655186
281  2  2.728387  8.479767 11.035871
282  2  1.015873  8.833125 11.210463
283  2  2.548467 12.552197 10.601461
284  2  1.204229 11.566830 10.312475
285  2  2.669261 10.933812  9.793459
286  2  4.453996 10.248372 17.065480
287  2  4.043760 10.889388 18.874279
288  2  5.126341 11.747020 17.738401
289  2 11.549223 -0.473474 15.771973
290  2  2.364366 12.731204 14.653057
291  2  3.923771 13.559699 15.352664
292  2 13.048037 -0.678650 18.368709
293  2  2.585128 13.025389 19.405087
294  2 11.242951 -0.376211 18.205495
295  2  0.003996 13.285535 18.979779
296  2  0.846636 11.729924 19.745581
297  2  0.017188 14.325722  0.039511
298  2  5.926469 10.592021 15.146009
299  2  4.375186 11.188823 15.091190
300  2  5.769639 12.397715 15.294329
301  2  4.320367 13.700904 12.808263
302  2  4.587517 12.814852 11.254938
303  2  5.986138 13.690765 12.121689
304  3 13.963863  0.792366  6.290461
305  3 -7.390639 14.050559  8.900230
306  3  1.346312 -0.567364 14.183688
307  3  3.422145 -0.486694 16.230792
308  3 -7.479676 11.521252 15.884505
309  3  0.089182  1.902481 17.817009
310  3 -1.244567  2.192233 15.082916
311  3  1.185102  2.008973  5.251601
312  3  1.219717  2.904442  8.252959
313  3 -3.203109  8.046383  4.251424
314  3 -0.067352  8.753954  4.598331
315  3  1.721845  4.784026  6.058776
316  3 -2.289881  5.369290 20.106969
317  3 -4.369897  7.541190 20.482009
318  3 -0.566977  6.497156  8.909745
319  3 -0.152405  9.359074  7.991486
320  3  0.644164  5.211054 15.032442
321  3 -0.982857  7.224498 12.855428
322  3 -5.076560 11.915146  0.012825
323  3 -6.796152 12.892506 19.438598
324  3 -6.784675  9.879246 18.687690
325  3  8.006149  9.485951 10.576845
326  3 -6.247478 10.463771  7.212237
327  3 -3.586644 11.201486  7.415169
328  3  7.165219  1.783329  4.750582
329  3  5.209498  2.829574  6.952212
330  3  4.718981  0.262421  5.392681
331  3 -2.773072 14.065251  8.982147
332  3  4.587318  2.011901 10.430180
333  3  2.127969  1.760708 11.928480
334  3  8.223062 -0.300208 16.652170
335  3  3.506562  4.516476  2.213421
336  3  3.448864  1.394235  2.021247
337  3  6.014245  3.132084  1.855757
338  3  1.095302  7.083706  1.092851
339  3  4.234098 11.475173  4.663286
340  3  7.277937 11.647654  4.483523
341  3  5.833281 11.397251  7.270159
342  3  5.720652  1.655909 17.719370
343  3  3.562170  2.847738 15.845409
344  3 -2.246240 10.945767  2.705339
345  3  0.521494 12.038457  2.097786
346  3 -2.637398 13.243361 20.477665
347  3  3.761981  8.034664  3.960990
348  3 -0.504982 12.980697  5.945002
349  3  4.164704  7.932995  6.982621
350  3  2.063911 12.456101  7.382691
351  3 10.168235  0.501332  7.734563
352  3  2.174072  8.962250 15.850994
353  3 11.428046  4.294003  3.170571
354  3 11.546508  1.250220  3.699724
355  3 12.962588  2.386901 17.470929
356  3 -0.020536  3.383297  1.307780
357  3 13.397800  1.978506  0.377523
358  3 15.509413  0.562987  2.187977
359  3 10.111019  0.544733 12.869288
360  3 13.314231  0.851451  9.787460
361  3 -1.955530  3.603031 10.429352
362  3  8.590180  4.326097 19.575748
363  3  5.498617  4.656555 13.059187
364  3  5.786119  5.672682 10.333162
365  3  5.132053  7.645389 12.419777
366  3 -1.024043  5.963683  4.044355
367  3 11.293586  5.780281  7.561834
368  3  8.897954  4.212102  6.526697
369  3  8.526089  6.741694  8.046097
370  3  8.981552  3.291039 15.833204
371  3 11.259768  3.455807 14.067017
372  3  4.938597  6.870271 16.236584
373  3  4.439936  5.311857 18.649627
374  3  2.468255  9.688241  0.269127
375  3  8.354137  8.002243 14.406478
376  3  5.942634  7.156422  1.014244
377  3  6.021868 10.054661  0.426342
378  3  8.460614  8.686947  1.727296
379  3  6.156169  6.442856  5.035017
380  3  1.964938  8.827133 11.775402
381  3  2.211441 11.557210 10.546229
382  3  4.278442 11.113685 17.755571
383  3  2.861721 13.218736 15.577109
384  3  2.741990 13.455007 18.397256
385  3  0.050686 12.591061 19.828119
386  3  5.347064 11.455370 14.794757
387  3  5.031002 13.116127 12.228843
388  4 -0.828638  3.416422  6.464846
389  4 -1.657720  7.371935  6.485325
390  4 -1.115387  4.343480 16.891095
391  4 -3.808159  6.411877 17.888996
392  4 -3.692723  6.265294 13.069323
393  4 -2.034150  5.979578 15.079399
394  4 -3.984452  7.322323 10.659383
395  4 -2.666635  8.340789  8.652823
396  4 -7.526110 12.157111 10.952920
397  4 -4.730819  9.617612  9.483373
398  4 -5.439112 12.154371  9.318918
399  4 -5.007340  7.961151 16.176387
400  4 -2.992276  8.347070 14.477431
401  4 -6.511474 10.450915 12.683112
402  4 -4.878430 10.067365 14.646644
403  4 -5.666243 12.454999 14.004752
404  4  3.562923 -0.532663 11.113444
405  4  4.670668  0.955147 13.076770
406  4  6.459192 -0.403856 14.412477
407  4  4.603569  2.750048  4.180677
408  4  6.092685  2.054541 14.848541
409  4 -0.433239  6.889331 17.046035
410  4  0.515218  7.417064 19.454320
411  4 -1.924079  7.916319 18.890828
412  4 -0.380962  9.575076  1.037205
413  4 -1.548755 11.692045  0.064748
414  4  5.936651  9.345603  5.290284
415  4 -2.523145  9.647889 10.865417
416  4 -1.884200 12.211167 10.982087
417  4 -3.942610 11.232778 12.326896
418  4 -0.353993 12.817328  8.859892
419  4  0.037933  9.295587 17.757225
420  4 -3.404331  9.786400 16.710298
421  4 -2.073223 11.256324 18.444420
422  4 -2.852192 12.192550 16.149702
423  4 -4.587026 11.578224 18.093376
424  4 -1.397831 10.592078 13.033536
425  4 -0.052882 10.301797 15.286054
426  4 -0.668392 12.593779 14.471639
427  4 12.798755  3.089380  5.356480
428  4 13.812818  2.697332  3.053280
429  4  8.557643  0.079685 10.613046
430  4  7.337102  1.375668 12.597885
431  4 12.976401  2.953040  7.918257
432  4  9.592046  6.526249 17.934299
433  4  9.127898  2.794828 11.375745
434  4 11.361173  2.777988  9.980048
435  4 10.853801  4.892616 11.368712
436  4  9.464851  4.352855  9.234932
437  4 10.835684  5.376367 15.924637
438  4  5.816264  4.210128 16.336912
439  4  7.089229  5.986987 17.700752
440  4 10.056851  7.128420 12.346548
441  4  7.609548  6.449576 12.159545
442  4  9.140882  5.321368 13.974343
443  4  7.910516  7.156046 19.766681
444  4  1.272796 11.171048 13.181856
445  4  1.433530 11.271591 17.118850
446  4  6.763036 10.791863 12.521967
447  4  3.993557 10.573178 12.678147

