Generated by pymatgen.io.lammps.data.LammpsData

419  atoms

  4  atom types

0.000000 15.940500  xlo xhi
0.000000 14.916809  ylo yhi
0.000000 19.025612  zlo zhi
-7.777447 -1.318038 1.201148  xy xz yz

Masses

1  28.08550
2   1.00794
3  12.01070
4  15.99940

Atoms

1    1 -3.978236 13.911965  2.284025
2    1 -0.227080  3.785805 18.569948
3    1  2.068485  0.928597  9.212772
4    1 13.555158  3.309815 11.250225
5    1 -6.732706 15.814023 14.468978
6    1 -2.494242  4.029386 16.566171
7    1  0.271217  3.511788 13.095519
8    1 -3.141568  7.084598  1.970673
9    1 -2.046798  4.479000  8.426824
10   1 -0.876552  5.925859 14.552310
11   1 11.109190  7.205443 16.258527
12   1 -1.244683  7.442989 12.023235
13   1 -2.862682  9.899261  1.006835
14   1 -5.236931 13.605761 18.582886
15   1 -2.757039 11.578700  9.060757
16   1 -3.680727 12.117495 15.024335
17   1  8.223379 13.546101 16.317126
18   1 -4.889522 13.939917 12.943314
19   1  5.861076  3.858286 18.446853
20   1 -0.377704 15.418163  9.382480
21   1  2.741835  3.071397 11.221116
22   1  6.493293  1.139288 15.089974
23   1  5.513573  3.102503 12.826687
24   1  2.076522  8.701172 18.505832
25   1  3.522968  5.094383  9.063421
26   1  3.128302  8.051230  8.600908
27   1  4.256679  5.632927 13.950340
28   1  0.270192  8.596146 16.034215
29   1  1.843509 11.753374  2.624583
30   1  0.174693 13.891693 18.700654
31   1 -2.360889 13.826244 11.237287
32   1  1.615498 13.604272  8.014349
33   1  1.373761 11.227651 14.858051
34   1 -2.444255 13.946901 16.995008
35   1 -0.115805 13.637959 13.379761
36   1  5.586461 14.945779  0.482490
37   1 10.570531  3.375560  3.431269
38   1 10.708680  3.526287 17.939630
39   1  5.797314 15.215911 10.902056
40   1  8.147719  3.035577 10.998706
41   1  7.993506  3.514700 16.326638
42   1 10.716928  3.696324 12.609034
43   1 11.209979  4.789376  0.801549
44   1  8.841414  8.070855 17.871328
45   1  8.864745  4.996147  8.903796
46   1  7.930642  6.902452  6.714899
47   1  9.270182  5.600828 14.509883
48   1  8.349216  8.427176 13.405066
49   1  5.500990 13.702832 18.012878
50   1  7.378806 11.047393 14.717642
51   1  2.658619 13.217252 16.800186
52   2 -1.639094 14.961643  2.619256
53   2 -1.451125 13.265654  2.251491
54   2 -2.112208 13.688295  3.837656
55   2 -5.856024 13.557772  3.995949
56   2 -4.353197 12.506945  4.278099
57   2 -5.462760 12.096474  2.889420
58   2  1.965148  0.666609  2.650648
59   2  3.475147  1.426214  1.746361
60   2  3.470207  1.142733  3.500903
61   2  1.182776  1.809865 18.642246
62   2 -0.405994  1.383039 17.923078
63   2  1.062874  0.364820  0.675029
64   2  2.024856  3.820946  1.498077
65   2  0.837674  2.712315  2.001114
66   2  0.327574  4.239894  1.104817
67   2  0.816730  4.126712 16.512899
68   2  2.094760  4.083700 17.929736
69   2  1.020017  5.572781 17.467985
70   2  0.111290  2.382304  9.064943
71   2  0.216484  1.349639  7.468123
72   2  1.339297  2.702798  7.776148
73   2 -5.304329 13.546305  9.758997
74   2 -6.301881 13.564914  8.286415
75   2 -7.059454 13.865296  9.812079
76   2  3.606327  0.857039  7.150776
77   2 -3.391105 15.156618  8.757870
78   2  4.161678  1.995904  8.435576
79   2  2.039656  2.180268 16.331775
80   2  3.326507  1.779589 15.164364
81   2 -5.076816 15.444679 16.236267
82   2 -1.024219  2.255616 16.069793
83   2 13.619964  2.327204 14.772436
84   2 13.132390  1.584101 16.356318
85   2 -1.411090  6.110844  3.492532
86   2 -0.919887  7.696027  2.991207
87   2 -0.849481  6.448866  1.836352
88   2 13.249605  2.041427  7.977629
89   2 14.123468  2.768089  6.549186
90   2 12.321401  3.145018  6.952910
91   2 -2.387816  6.802269  7.568769
92   2 12.219531  6.340342  8.845387
93   2 12.219230  5.892908  7.154772
94   2  0.111783  4.559870  6.905536
95   2  0.357476  4.545328  8.664644
96   2 -0.096200  6.061430  7.832274
97   2 -2.402971  6.739783 17.119245
98   2 12.070665  6.152255 18.131218
99   2 -3.333809  7.790206 18.165654
100  2 -2.801389  8.017084 10.089662
101  2 -3.333641  8.723794 11.674306
102  2 -3.518820  6.987267 11.510305
103  2 -0.566127  6.881090  9.809605
104  2 -0.118055  5.545815 10.829188
105  2  0.867657  6.906420 10.758983
106  2 -2.833426 11.311612 18.196285
107  2 -0.574640  9.046820  0.513882
108  2 -0.778715 10.896383  0.726969
109  2 -2.468687 11.489548  2.781354
110  2 -2.217283  9.727285  3.443065
111  2 -3.847003 10.481097  3.136943
112  2 -5.260449 10.985656  8.988270
113  2 -4.229282 10.105923 10.196586
114  2 -4.227676  9.699089  8.454411
115  2 -1.322953  9.776298  9.660825
116  2 -0.396305 11.331929  9.251394
117  2 -1.166980 10.098758  7.958984
118  2 -2.388460 13.457629  7.579423
119  2 -3.986136 12.717582  7.330949
120  2 -2.477879 11.975086  6.698728
121  2 -4.575340  8.676229 14.441391
122  2 -4.066285  7.016391 13.970507
123  2 -2.942258  8.060148 14.793174
124  2 -4.249858 10.132450 16.712668
125  2 -5.585152 10.390454 15.440616
126  2 -5.373337 11.511649 16.733787
127  2  0.084891  9.381400 11.720348
128  2  0.717758  8.393561 13.118350
129  2 -0.674849  9.488215 13.187793
130  2 -3.498801 10.363983 13.192549
131  2 -2.310444 10.155378 14.684728
132  2 -1.995791 11.239092 13.191598
133  2 -4.994652 11.776363 11.773429
134  2 -6.468302 12.700562 11.557679
135  2 -6.133842 11.859813 13.007811
136  2  7.881404  1.738157  1.635822
137  2  8.110129  3.481353  1.475436
138  2  9.259685  2.366759  0.695576
139  2  5.686489  6.342731 18.802061
140  2  5.642810  4.111095  0.666657
141  2  4.170771  5.483560 17.933161
142  2  4.557363  2.225279 17.302272
143  2  3.789279  2.724074 18.700654
144  2  5.063710  1.462094 18.844488
145  2  6.444255  0.559668  7.130609
146  2  7.970174  1.567060  7.233157
147  2  6.582311  2.327071  7.757693
148  2  1.984777  6.169905  0.850825
149  2  3.630484  6.602762  1.653706
150  2  3.637813  5.384822  0.297751
151  2  4.304822  8.218269 17.522208
152  2  5.712953  7.525349  0.313732
153  2  4.069083  9.999202 18.169840
154  2  4.060863  4.973064  6.640890
155  2  2.423122  5.125424  6.946631
156  2  3.212116  3.547727  7.164855
157  2  5.542564  5.344155 10.472648
158  2  5.836349  5.721743  8.731995
159  2  5.688021  4.028939  9.220382
160  2  1.326641  9.214504  9.712385
161  2  0.740244  8.286559  8.299923
162  2  1.541380  9.859001  7.984288
163  2  4.162377  9.223260 10.562259
164  2  4.889801  9.778558  9.046869
165  2  5.304803  8.068704  9.775550
166  2  4.412121  7.393871  6.581149
167  2  3.591852  9.133239  6.544430
168  2  2.703410  7.522741  6.146224
169  2  2.611153  4.080000 14.683777
170  2  2.108122  5.706330 15.101199
171  2  3.417118  4.722523 16.057426
172  2  3.215879  7.468000 12.920293
173  2  2.749816  5.930302 12.044925
174  2  4.349602  6.671926 11.888344
175  2  4.536125  7.752665 15.158656
176  2  6.115771  7.080798 14.702422
177  2  5.178082  6.373349 15.957922
178  2 -1.157322  8.799454 17.933732
179  2 -2.044521  9.036717 16.529261
180  2 -1.052416 10.411318 17.108401
181  2  0.355406  9.785382  3.134660
182  2 -0.251870 11.129576  3.945722
183  2  1.270419 10.147726  4.566718
184  2  3.393237  9.604929  0.876510
185  2  1.896125  8.870458  0.579330
186  2  1.184916 10.901784 18.275622
187  2  4.374957 11.249142  2.097003
188  2  3.517812 10.100127  3.207908
189  2  3.922975 11.754824  3.760412
190  2  2.226225 14.044677  2.706203
191  2  2.208928 13.540640  4.442861
192  2  0.648393 13.627087  3.425752
193  2  2.403508 14.909579  0.206808
194  2  0.660177 14.802242  0.713460
195  2 -0.350563 16.037169 18.010595
196  2 -0.039577 12.035186  6.953671
197  2  1.500012 12.141694  5.999156
198  2  0.330796 13.436916  5.843146
199  2  1.904196 11.609572  9.278030
200  2  3.161078 12.652692  9.814172
201  2  3.225244 11.789562  7.949281
202  2  3.638593 14.591183  6.885179
203  2 10.954355  0.617775  8.273097
204  2 10.002712  0.818682  6.720417
205  2  2.185446 10.953269 12.685707
206  2  3.323451  9.987935 13.844747
207  2  3.504049 11.752439 13.672185
208  2  1.341448 15.229226 12.232898
209  2  1.371124 13.609930 11.567762
210  2  2.173980 13.912268 13.091333
211  2 13.503265  1.680477  2.437561
212  2 14.459087  2.070802  0.908092
213  2 15.118821  0.904518  2.047917
214  2  5.574427 13.102037  2.039165
215  2  3.942815 13.397509  1.268438
216  2  4.484193 14.362590  2.588625
217  2  9.506190  1.253999  2.858027
218  2 11.013959  0.967991  3.733776
219  2 10.987953  1.415866  2.003016
220  2 12.744225  2.872896  4.324902
221  2 11.994886  4.393895  5.061003
222  2 12.831389  4.335244  3.409009
223  2  8.909997  2.761553  5.160317
224  2  8.207798  3.625947  3.822436
225  2  9.097420  4.509164  5.173825
226  2  4.556857 14.624351 12.847235
227  2  4.654236 13.149142 11.577085
228  2  3.630923 14.722562 11.376174
229  2 -0.189699  0.785122 11.762584
230  2  7.603450 13.986553 12.070609
231  2  6.829971 15.321055 12.992781
232  2  5.105681 14.049515  8.814946
233  2  6.613123 13.444139  9.487502
234  2  6.544780 14.995624  8.584737
235  2 11.366983  2.512453 14.701280
236  2 11.089021  1.474111 13.272076
237  2  9.684628  2.142313 14.234963
238  2  8.944048 10.561424 18.217213
239  2 10.328038  8.502885  0.741999
240  2  8.757953  8.381469  0.000190
241  2  7.400843  6.554598 16.839379
242  2  7.315496  8.202993 16.049245
243  2  6.501543  7.896761 17.674984
244  2 11.045279  3.831343  9.055811
245  2 10.372383  4.232947  7.270257
246  2  9.815803  2.813830  8.367654
247  2 10.673661  5.944666 10.405868
248  2  9.095451  6.713392 10.529725
249  2 10.172151  7.103253  9.137050
250  2 -4.199252  8.300856  3.864673
251  2 11.975757  6.585644  4.215505
252  2 10.595969  7.054735  3.135040
253  2  9.493933  7.841804  5.037982
254  2 10.390941  6.614895  5.935801
255  2 10.201676  8.002320  6.708621
256  2  6.461784  7.516540  4.965875
257  2  5.967965  5.828016  5.486606
258  2  7.477936  6.083835  4.529618
259  2  7.490341  8.310938  8.631730
260  2  6.148563  8.460605  7.491335
261  2  7.842884  9.186799  7.161240
262  2 10.293777  9.643538 12.583540
263  2  9.383653  9.023168 11.192197
264  2 10.332491  7.875341 12.248689
265  2  6.968400  9.044567 11.431919
266  2  5.817273  8.753743 12.885857
267  2  6.642072  7.333050 12.046827
268  2  6.873877 11.792696 18.820325
269  2  6.573470 10.641802  0.687586
270  2  7.815586 11.827288  1.179778
271  2  6.256974 10.396259 16.806084
272  2  5.383287  9.733997 15.285176
273  2  5.314791 11.460115 15.863175
274  2  7.262995 11.607611 12.250021
275  2  6.284070 12.764156 13.408490
276  2  5.614207 11.153225 12.958534
277  2  3.547048 14.718681 14.948613
278  2  2.805585 15.633988 16.257766
279  2  1.754319 14.744489 15.128215
280  3 -2.138412 13.995377  2.785350
281  3 -5.041704 12.931181  3.526778
282  3  3.097499  0.734988  2.561799
283  3  0.107674  1.966939 18.715494
284  3  1.069475  3.410712  1.152762
285  3  1.080644  4.441726 17.490625
286  3  0.785186  1.864133  8.285844
287  3 -6.145868 14.016932  9.267566
288  3  3.682901  0.991456  8.237900
289  3  2.415284  1.426444 15.661884
290  3 13.808685  2.340509 15.892855
291  3 -1.452742  6.785138  2.649887
292  3 13.337898  2.995872  7.343125
293  3 -3.046878  6.016644  7.994752
294  3 -0.276948  4.990755  7.875652
295  3 -3.493841  6.930798 17.534004
296  3 -2.868407  7.824989 11.219593
297  3 -0.170204  6.602745 10.790185
298  3 -1.231365  9.947800  0.263505
299  3 -2.768924 10.445300  2.768417
300  3 -4.290816 10.538755  9.193937
301  3 -1.186165 10.598905  8.929861
302  3 -2.921632 12.569805  7.494759
303  3 -4.015182  7.821982 14.739712
304  3 -4.819213 10.907175 16.071505
305  3 -0.172402  8.809815 12.543015
306  3 -2.769984 10.827747 13.920279
307  3 -5.710209 12.487837 12.228522
308  3  8.182923  2.559293  0.985527
309  3  4.951370  5.512735 18.711879
310  3  4.713594  2.391254 18.345827
311  3  7.002932  1.342319  7.732579
312  3  3.062376  6.253369  0.736291
313  3  3.906848  8.897916 18.340309
314  3  3.301057  4.607331  7.288712
315  3  5.312365  5.036090  9.432518
316  3  1.557804  8.966690  8.683860
317  3  4.539453  8.841716  9.612881
318  3  3.581039  8.031013  6.763795
319  3  2.982170  4.980126 15.057820
320  3  3.507429  6.500141 12.550816
321  3  5.093799  6.829940 15.038605
322  3 -1.096454  9.306190 17.002999
323  3  0.697563 10.613446  3.678602
324  3  2.788806  9.102551  0.082952
325  3  3.591079 11.138493  2.905591
326  3  1.692117 13.455342  3.443826
327  3  0.067563 15.704058 18.955407
328  3  0.722319 12.775571  6.557748
329  3  2.663465 12.279463  8.842914
330  3  2.739551 15.013701  7.415613
331  3  2.732678 10.968395 13.617582
332  3  1.302336 14.141519 12.474333
333  3 14.219171  1.269642  1.603098
334  3  4.787903 13.783491  1.676156
335  3 10.527233  1.564339  3.000910
336  3 12.210908  3.777593  4.147583
337  3  9.101952  3.631257  4.520866
338  3  4.526598 14.303991 11.784844
339  3  7.159445 14.991779 12.011249
340  3  6.030052 14.299989  9.257102
341  3 10.734725  2.323986 13.823629
342  3  8.542722  9.621466 18.809481
343  3  7.296515  7.641565 17.006804
344  3 10.196465  3.847962  8.317236
345  3  9.796619  6.320642  9.797429
346  3 11.642074  7.235476  3.434313
347  3  9.628522  7.378083  6.056994
348  3  6.826544  6.530957  5.300916
349  3  7.263594  8.384687  7.571813
350  3  9.725006  8.759648 12.242220
351  3  6.750921  8.399305 12.356374
352  3  7.389063 11.265135  0.282911
353  3  5.931254 10.582158 15.785931
354  3  6.630413 11.694160 13.172002
355  3  2.688943 14.702676 15.656747
356  4 -1.589739  4.130711 17.913565
357  4 -0.979630  3.525297 12.064331
358  4  0.274895  2.181010 13.935880
359  4 -2.224253  4.241351 10.011848
360  4 -2.042641  5.195655 15.506444
361  4  0.109779  4.790906 14.002850
362  4 -1.532758  6.515433 13.277404
363  4 -3.198509  8.381995  0.991425
364  4 -3.807477 10.867685  0.149541
365  4 -4.224074 13.410107  0.792226
366  4 -6.508899 13.623973 17.482064
367  4 -7.619445 14.680843 15.202225
368  4 -4.345504 13.403023 14.303645
369  4 -5.962447 15.111546 13.270364
370  4  2.209086  1.666511 10.604115
371  4  1.732317  3.498969 12.363223
372  4  4.260062  2.828743 11.748696
373  4  5.607339  1.982174 14.006846
374  4  2.710249  4.098678 10.020219
375  4  2.923586  6.578792  9.198693
376  4  5.262303  4.555813 13.395553
377  4 -0.138998  7.148941 15.335214
378  4  1.489627  8.378090 17.048280
379  4  1.412471 11.827035  1.029286
380  4 -2.739108 12.526706 10.401112
381  4 -1.669995 14.949891 10.305793
382  4 -3.659357 14.403108 12.012771
383  4  0.568688 14.168802  9.090628
384  4  0.715535  9.814145 15.044883
385  4 -2.606682 12.783991 15.972001
386  4 -1.113294 13.495640 17.786093
387  4 -2.212930 15.355161 16.221807
388  4 -3.756550 13.988417 17.966836
389  4 -1.267351 13.336343 12.351998
390  4  0.241834 12.269240 14.266545
391  4 -0.537201 14.895831 14.288425
392  4 11.889994  4.094222 16.933936
393  4 11.064458  2.086393 18.525999
394  4 13.218115  1.845109 10.782004
395  4  8.150947  1.605802 10.259181
396  4  6.969872  3.113146 12.109231
397  4  7.529671  2.064789 15.823411
398  4  9.369369  3.329640 17.107259
399  4  6.772827  4.100495 17.184503
400  4 12.246303  3.892794 12.065853
401  4  9.593276  3.197018 11.566430
402  4 10.402343  4.293970  2.107848
403  4 11.731622  3.408014  0.103499
404  4 12.412630  5.728948  1.275858
405  4 10.082426  8.174289 16.913008
406  4  8.984659  6.883195 18.840302
407  4  7.997279  4.206299  9.988256
408  4  7.968392  5.642475  7.698524
409  4  8.278626  4.458198 15.069807
410  4 10.223479  5.037960 13.351223
411  4 10.269917  5.977441 15.700125
412  4  8.503927  6.973648 14.092080
413  4  6.728340 13.819753 16.987017
414  4  5.267282 15.148302 18.596965
415  4  8.190122  9.665584 14.459084
416  4  8.208136 12.077558 15.615651
417  4  2.120608 11.858362 16.176907
418  4  4.165784 13.099380 17.236824
419  4  1.615482 13.663109 18.021630

