Generated by pymatgen.io.lammps.data.LammpsData

447  atoms

  4  atom types

0.000000 15.779000  xlo xhi
0.000000 14.341834  ylo yhi
0.000000 19.608457  zlo zhi
-8.491605 2.096705 -3.766448  xy xz yz

Masses

1  28.08550
2   1.00794
3  12.01070
4  15.99940

Atoms

1    1 -4.933711 13.125445  3.133235
2    1 14.312764  2.102401  4.184053
3    1 -5.619720 10.373107  8.664389
4    1 14.632632  0.549386 11.476242
5    1  4.671465 -2.754188 18.146450
6    1  0.266939  1.864252 13.755725
7    1  0.368137  3.894553 19.073734
8    1 12.116611  5.211968 10.052864
9    1 -2.915224  9.207065  1.879863
10   1 -6.204469 10.486138  4.296409
11   1 -3.941864 11.966478  0.534919
12   1 -2.795331  7.452509  7.979858
13   1 -4.074676  9.637797  6.237058
14   1 -0.553996  7.795585 15.777749
15   1 -4.460589  8.599084 18.217433
16   1 -0.456352 12.792739  2.924797
17   1  4.542734  0.430588  5.487623
18   1  7.425969  0.993422  1.460634
19   1 -0.132158 11.764742  8.628309
20   1  1.768240 11.083728 16.808173
21   1  4.835639  1.987936  0.266479
22   1  7.047359  0.245967 11.882137
23   1  1.101230  6.415293  2.978132
24   1  2.484044  5.128975  8.618309
25   1  6.092730  4.455272 14.506729
26   1  2.208443  8.665566  1.218077
27   1 -1.724007 10.382477  4.432884
28   1  1.104842 11.392296  0.508447
29   1  2.377835  8.039477  7.871815
30   1 -1.103079  9.121665 10.091100
31   1  0.846524 10.109059  6.152742
32   1  5.416126  6.910499 16.086386
33   1  0.803772  8.674729 18.358222
34   1 14.126450  0.182767  1.839469
35   1  9.600019 -0.069601 10.131494
36   1 11.980858  1.545705  6.143722
37   1 11.764195 -0.187752 12.284698
38   1 11.521260  1.292874 18.914318
39   1  6.832460  7.220866  3.495600
40   1 10.526906  4.097559 19.019615
41   1 10.769543  2.672971  8.668899
42   1  8.454211  4.880235 12.683338
43   1  8.649926  4.500934  7.322190
44   1 11.365835  5.836232 13.106096
45   1  7.943989  9.508391  1.871627
46   1  6.667001 11.922288  0.529036
47   1  3.683149  9.397982 10.213065
48   1  7.027420 11.757668  5.576253
49   1 10.626410  8.017457 15.249105
50   1  6.002361  8.211574 18.768431
51   1 -6.171200 10.691980 14.151227
52   2  1.879834 -0.313221  1.642600
53   2  2.016515  0.642483  3.142059
54   2 -7.291254 13.428634  3.234023
55   2 -0.173208  3.525412  5.639196
56   2  0.783482  3.217307  4.132678
57   2  0.662224  2.014921  5.461543
58   2 12.517476  2.904238  2.534785
59   2 -1.983258  4.101058  2.558708
60   2 12.776001  4.004826  3.828747
61   2  8.401867 11.622351  9.686186
62   2 -7.073471 12.212498  7.948092
63   2  2.502021 -1.633509  9.347155
64   2 -4.303904  9.073896 10.313656
65   2 -5.560403  9.966976 11.193880
66   2 -4.127447 10.866816 10.568762
67   2  8.546540  8.834821  7.504745
68   2  8.373015  8.874583  9.280094
69   2  9.763623  8.043770  8.595367
70   2 14.339179  1.887496  9.427354
71   2 15.261428  0.275462  9.129501
72   2  0.278002  1.652630 10.043059
73   2 15.164131 -1.800926 11.333492
74   2 15.457023 -1.189678 12.961190
75   2  0.947926 -0.957559 11.753505
76   2  6.139225 -1.792544 16.558950
77   2  4.386482 -1.405257 16.206978
78   2  5.025118 -2.941516 15.748336
79   2  2.388567 -1.630070 18.351751
80   2  3.655059 -0.682657 19.059616
81   2  0.888255  1.753560  0.362953
82   2 14.531228  1.491495 15.641078
83   2  0.540563  1.505733 16.219527
84   2 15.593410  0.125736 15.367736
85   2  0.184236  4.240325 12.972171
86   2  1.446927  3.898213 14.373195
87   2 -0.261860  4.073882 14.728696
88   2  2.212069  1.360405 12.231167
89   2  2.071713  0.158734 13.614544
90   2  2.775912  1.657684 13.927691
91   2 -0.117499  5.968234  0.385894
92   2  1.489772  1.877443 18.367045
93   2 -1.716456  5.109287  0.212752
94   2 -1.405853  3.360833 17.367210
95   2 -2.044599  4.342587 18.716860
96   2 14.047763  2.605476 18.933534
97   2  2.224581  5.232255 18.311946
98   2  0.662172  5.571365 17.508195
99   2  1.663511  3.939844 17.045239
100  2 -1.255481  4.842845  9.454610
101  2 -1.840725  3.754069 10.765435
102  2 -1.494481  5.419064 11.089955
103  2 -4.706837  8.085849  3.216963
104  2 -3.737449  6.885987  2.446547
105  2 10.823462  7.834721  1.372004
106  2 -0.984619  7.347771  6.415103
107  2 -1.907706  5.839706  6.343532
108  2 -0.695233  6.074112  7.743184
109  2 -2.504439  6.487520 15.414600
110  2 -2.198446  6.875611 17.143086
111  2 -1.292217  5.498015 16.446789
112  2 -0.216026  6.501526 13.640819
113  2  1.291632  6.889711 14.419079
114  2  0.379480  8.163339 13.645917
115  2 -2.361179  9.063445 14.771051
116  2 -0.974653 10.099916 15.063805
117  2 -2.030599  9.612589 16.426396
118  2  0.220887 13.267761  5.163887
119  2  8.680500  0.369941  4.172680
120  2 10.021702 -0.714241  3.925221
121  2  6.870795  1.183322  5.331932
122  2  6.653073 -0.361815  6.114897
123  2  6.302943  1.109712  7.002376
124  2  4.643517  2.786038  4.739756
125  2  3.710298  2.538281  6.317060
126  2  2.927704  2.203811  4.734266
127  2 -5.490645 13.023569  6.401573
128  2  2.702030  0.261663  7.190617
129  2  4.203010 -0.655603  7.594355
130  2  7.160147  3.426736  2.271836
131  2  8.398741  2.455021  3.167354
132  2  6.564276  2.162874  3.404812
133  2  9.217644  1.804797  0.013334
134  2  9.571822  0.163885  0.354129
135  2  9.923197  1.261249  1.663385
136  2 -2.466304 12.216806  7.617297
137  2  6.790627 -0.697299  8.553601
138  2 -2.351713 12.167581  9.298919
139  2 12.480291 -2.459361 16.220312
140  2 12.495016 -2.746003 17.943307
141  2 11.640153 -1.320465 17.399956
142  2  2.396551  8.986945 15.600880
143  2  2.965020 10.423312 14.801052
144  2  1.241748 10.085707 14.594967
145  2  5.735919 -0.001721 18.812550
146  2  7.304407  0.035717 18.097233
147  2  4.903273  4.485924  0.196673
148  2  4.401638  1.555631  2.671652
149  2  3.112260  2.467065  1.777114
150  2  4.650178  3.268793  2.287719
151  2  4.838088  1.085543 12.507058
152  2  4.832750  0.549108 10.807201
153  2  5.653688  2.181264 11.197409
154  2  9.472008 -1.072297 16.042267
155  2  8.546743 -1.544722 17.332503
156  2  8.044276 -2.381204 15.898537
157  2 -1.024984 12.048195 11.846057
158  2  5.781227 -1.810970 11.361140
159  2  6.160455 -1.699523 13.018643
160  2  8.214444  1.646144 13.565915
161  2  8.581134 -0.090438 13.783569
162  2  6.987133  0.547243 14.276133
163  2  2.087481  5.028261  0.919048
164  2  0.750713  4.171928  1.826136
165  2  2.262117  4.234849  2.529687
166  2  2.735979  5.576904  4.617596
167  2  1.438355  6.593518  5.453504
168  2  2.675575  7.392489  4.503082
169  2 -0.826339  5.444736  4.090128
170  2 -1.290524  6.537063  2.651063
171  2 -0.727313  7.161873  4.254447
172  2  1.799030  3.732073  6.739034
173  2  0.726551  3.567899  8.105940
174  2  2.341985  2.846816  8.149863
175  2  2.929231  4.548287 10.951519
176  2  1.143645  4.768566 10.595430
177  2  2.258435  6.234919 10.843084
178  2  4.582037  4.951734  7.318268
179  2  4.500935  3.797726  8.785765
180  2  4.821278  5.500130  9.105187
181  2  3.641156  4.399358 13.712194
182  2  4.783074  4.140289 12.440193
183  2  4.574445  5.796571 13.025114
184  2  4.907714  3.318156 16.315609
185  2  6.597291  2.615103 16.045404
186  2  5.250138  2.171286 14.978116
187  2  4.147716  3.081594 19.103931
188  2  3.692416  6.846712  0.412562
189  2  5.383631  4.325675 18.688428
190  2  4.552069  9.557262  1.246117
191  2  4.058774  8.911087  2.683809
192  2  3.585820 10.558236  2.350858
193  2  4.145612  9.189719  6.886098
194  2  3.968499  7.569866  6.091367
195  2  4.617281  7.600913  7.664946
196  2  0.250024  7.056583  9.780502
197  2 -0.345058  7.279208 11.473692
198  2  0.982618  8.234801 10.871909
199  2 -2.576563 10.179920 11.745073
200  2 -1.330823  9.380567 12.569805
201  2 -2.672013  8.484059 11.917236
202  2  3.139195 10.906084  5.836653
203  2  2.040236 11.528152  4.594654
204  2  2.650313  9.786274  4.589752
205  2  3.516595  5.372645 16.293843
206  2  3.379484  6.454029 14.975959
207  2  3.030886  6.986860 16.782682
208  2  5.341889  8.043730 13.863179
209  2  6.562802  8.896520 14.940468
210  2  4.847170  9.164154 15.094198
211  2 12.950276  1.944458  0.575704
212  2 16.291472 -2.660717 19.144913
213  2 -1.123269  2.327363  0.826693
214  2 11.734370 -0.175063  1.528871
215  2 12.149041  0.106905  3.198335
216  2  3.973803 12.826063  2.499686
217  2 10.561034  1.797051  3.940712
218  2 10.702520  3.218727  4.977215
219  2  9.664987  1.937011  5.531154
220  2 11.672890 -0.888379  5.618019
221  2 10.627679 -0.348969  6.801389
222  2 12.287772 -0.705350  7.297091
223  2 11.199805 -1.722112 13.985928
224  2 12.818956 -1.162805 14.307114
225  2 12.746466 -2.390629 12.953543
226  2 10.633404  0.739625 14.269858
227  2 10.823095  2.044552 13.046291
228  2 12.270521  1.517015 14.006713
229  2  9.882453 -0.459367 18.567640
230  2  9.316227  1.102476 18.286063
231  2  7.239808  4.396353  0.364325
232  2 12.705766  2.011536 16.883470
233  2 11.225562  1.024319 16.517968
234  2 12.879506  0.331869 17.084064
235  2 11.120922  5.034756  1.194351
236  2 11.077520  3.436684  0.141377
237  2  9.843265  3.839327  1.446908
238  2  4.515964  6.748899  3.399910
239  2  5.325399  5.219054  3.625408
240  2  5.323474  5.881035  2.052417
241  2  6.490460  7.121218  5.963128
242  2  5.916881  8.692314  5.121925
243  2  7.570189  8.455674  5.448210
244  2 12.056758  5.367992 17.473880
245  2 10.341111  5.764345 17.258383
246  2 11.066734  4.216266 16.569342
247  2  8.562537  3.116799 18.008995
248  2  8.275399  4.777341 18.792745
249  2  6.404365  7.208162  0.195104
250  2  9.263164  2.846167 11.658012
251  2  9.185719  4.309069 10.578174
252  2  7.723984  3.224760 10.868968
253  2  7.376580  7.042142 12.712359
254  2  6.897116  6.174184 11.355650
255  2  8.458987  6.931115 11.316237
256  2  9.825341  5.243475  5.338010
257  2 10.877586  5.497489  6.827469
258  2  9.445652  6.727122  6.314707
259  2  8.177894  5.200241  3.713646
260  2  9.252039  6.645753  3.538934
261  2  8.310947  5.913284  2.116733
262  2  7.707158  3.417418  5.409973
263  2  6.820278  4.877895  5.952539
264  2  6.660362  3.428583  6.830214
265  2  7.104855  4.826186  9.282251
266  2  6.996319  6.158821  8.129470
267  2  8.407388  6.089934  9.354214
268  2 12.430800  3.750833 13.034918
269  2 12.495395  4.340898 14.809483
270  2 -2.074459  4.938095 13.628270
271  2  2.909015 11.701446  9.810503
272  2  3.745449 10.959648  8.408498
273  2  4.804268 11.646090  9.798542
274  2  2.918280  8.180581 12.174107
275  2  2.138904  9.793254 12.196852
276  2  3.924664  9.648985 12.568629
277  2  5.601430 10.682801  3.756392
278  2  6.113155 12.436476  3.489325
279  2  4.796410 12.181800  4.615831
280  2  6.546902 11.527965  7.994368
281  2  6.333694  9.931231  7.060613
282  2  5.134780 11.209606  6.880215
283  2 14.893878 -0.262866  5.727434
284  2  0.869755 -0.407868  5.576645
285  2 15.917706 -0.641567  7.200225
286  2  8.697151  6.385248 15.606567
287  2  8.286364  7.679370 14.547514
288  2  8.425368  8.146564 16.286784
289  2  7.350056  9.792591 17.454468
290  2  6.043327 10.492299 18.681369
291  2  5.529488 10.021936 17.044455
292  2  2.971555 -1.978042 12.366073
293  2 -4.226520 11.201728 12.985504
294  2  3.955154 -1.686145 13.830041
295  2  5.086189  7.320301 10.245811
296  2  6.008959  8.677836 10.986814
297  2  5.726881  8.646543  9.133031
298  2  7.374208 10.039523 13.379438
299  2  8.528243  8.986093 12.593335
300  2  8.408919 10.720767 12.015278
301  2 16.128904 -2.860486 15.476563
302  2  1.836543 -1.627321 15.478524
303  2  1.917301 -2.997608 16.476398
304  3  2.029899 -0.348088  2.751459
305  3  0.063626  2.759779  4.896624
306  3 13.335334  3.365905  3.194806
307  3 -6.652053 11.940123  8.906161
308  3 -4.815877 10.017337 10.325421
309  3  9.078144  8.907449  8.419087
310  3 -0.666735  1.165279  9.811680
311  3 15.634875 -0.995750 11.897823
312  3  5.107708 -2.192593 16.475614
313  3  3.294449 -1.679910 18.930789
314  3 -0.181068  1.182809 15.456170
315  3  0.434297  3.733052 13.962986
316  3  1.992114  1.187884 13.352575
317  3  1.097167  2.135675 19.391783
318  3 -1.320127  3.531772 18.440969
319  3  1.346490  4.754750 17.818009
320  3 -1.889045  4.773025 10.341500
321  3 -4.222000  7.818535  2.228305
322  3 -1.442103  6.589204  7.035710
323  3 -1.727816  6.495928 16.216782
324  3  0.301346  7.248871 14.216523
325  3 -1.566456  9.281699 15.523819
326  3  8.982821 -0.673206  4.179739
327  3  6.223937  0.636272  6.079602
328  3  3.881516  2.125982  5.296244
329  3  3.516050 -0.432165  6.787271
330  3  7.380042  2.411913  2.745184
331  3  9.214816  1.088388  0.828849
332  3 -1.805510 12.523495  8.461441
333  3 11.847177 -2.429461 17.106222
334  3  2.091354 10.009307 15.297342
335  3  6.752883 -0.081962 19.092166
336  3  4.164036  2.366479  1.957316
337  3  5.425662  1.114468 11.548597
338  3  8.931089 -1.961234 16.406788
339  3  6.635758 -1.567582 12.012925
340  3  7.804451  0.637983 13.550620
341  3  1.589854  4.888352  1.933394
342  3  2.084481  6.438209  4.547005
343  3 -0.668250  6.362795  3.515012
344  3  1.718678  3.721086  7.840049
345  3  2.191939  5.179151 10.426797
346  3  4.263522  4.812541  8.406538
347  3  4.602492  4.732042 13.344339
348  3  5.703676  3.001350 15.580880
349  3  4.954776  3.687436 19.518846
350  3  3.692221  9.483208  1.923590
351  3  3.939264  8.152866  6.964924
352  3  0.053660  7.766965 10.588959
353  3 -2.013885  9.329861 11.716053
354  3  2.365199 10.621084  5.132710
355  3  3.647374  6.444699 16.048934
356  3  5.551306  8.364281 14.906937
357  3 13.979584  1.509697  0.555115
358  3 12.466182 -0.396168  2.335759
359  3 10.625092  2.133915  5.007804
360  3 11.644679 -0.252195  6.467065
361  3 12.151031 -1.516032 13.435715
362  3 11.293544  1.193679 13.540424
363  3  9.877964  0.547816 19.011379
364  3 12.099903  1.129366 17.159753
365  3 10.500281  4.274804  0.636491
366  3  5.362307  6.163924  3.105587
367  3  6.708256  7.941840  5.207614
368  3 11.089588  4.896110 17.384466
369  3  8.771869  3.810560 18.800196
370  3  8.644342  3.689461 11.297412
371  3  7.734058  6.382441 11.967826
372  3  9.800279  5.615526  6.376474
373  3  8.276468  6.188235  3.179119
374  3  7.370148  4.009301  6.241764
375  3  7.759031  5.461839  8.631054
376  3 12.619418  4.593448 13.750038
377  3  3.833220 11.121621  9.521474
378  3  3.112578  9.257180 12.007827
379  3  5.747905 11.688768  4.219152
380  3  6.243984 11.025266  7.067868
381  3 15.847987 -0.773320  6.115093
382  3  8.850738  7.492539 15.482838
383  3  6.309260  9.787378 17.863892
384  3  3.446074 -2.449055 13.274141
385  3  5.296248  8.412973 10.144435
386  3  8.379119 10.049465 12.939425
387  3 17.245157 -2.669484 15.569311
388  4 -0.703703  1.574954 12.526863
389  4 -1.861035  8.523970  0.841987
390  4 -5.281913 11.761364  3.882278
391  4 -3.646097 10.473299  1.173566
392  4 -4.284865 12.967494  1.708877
393  4 -3.669941  6.289368  8.778118
394  4 -5.193431  9.541596  5.149769
395  4 -3.639526  8.224986  6.877666
396  4 -4.684698 10.519856  7.402389
397  4 -3.167555  8.101152 19.140207
398  4 -4.449072 10.124455 18.014485
399  4  4.516983 -0.401004  4.087187
400  4 -1.276455 13.888394  2.138890
401  4  5.958888 -2.724116 19.122559
402  4  6.323070  1.398303  0.356286
403  4  1.313000  7.791664  2.171833
404  4 -2.184823  9.454874  3.253043
405  4 -1.448177 11.830106  3.803648
406  4 -2.817223 10.330689  5.584292
407  4  1.326532  9.801383  0.594921
408  4  0.607421 12.020839  1.967709
409  4  2.063726  6.531919  7.955151
410  4 -2.144629  8.569334  8.986948
411  4 -0.295613 10.502658  9.619125
412  4 -0.412737  9.837335  5.137024
413  4  1.221737  8.846574  7.043358
414  4  0.435442 11.257764  7.147675
415  4  6.199040  5.720767 15.449895
416  4  0.491724  7.928230 16.960531
417  4  1.967636  7.792333 19.078440
418  4  1.388591 10.109471 18.033506
419  4 -0.494495  8.710114 19.333546
420  4 14.673121  0.841386  3.210100
421  4  9.289593 -1.324988  9.111069
422  4  8.201778  0.482517 10.749944
423  4 13.456844  1.662497  5.462524
424  4 13.025642  0.307918 11.463300
425  4 10.588568 -0.605080 11.299765
426  4 11.361250  2.778498 19.296094
427  4 10.391410  1.208791  9.378333
428  4 11.828914  2.306814  7.512392
429  4 11.252627  3.837275  9.655792
430  4  7.427142  4.259470 13.667683
431  4  9.423350  3.188920  7.915150
432  4 11.647080  5.956481 11.467614
433  4  9.913965  5.171374 13.316495
434  4  6.893178  8.441350  2.463018
435  4  8.571050  8.935421  0.571783
436  4  9.126546  9.762144  2.946563
437  4  9.853218  8.196667 18.907258
438  4  7.195389 10.867519  1.577696
439  4  6.560514 13.336425  1.282981
440  4  2.601126  8.650940  9.297546
441  4  8.343332 10.952727  5.246635
442  4 11.390300  7.151178 14.075539
443  4 -4.398969  7.977708 16.688758
444  4  5.865357  7.199168 17.635846
445  4  5.159089 11.551164  0.042746
446  4  4.612268  8.240849 19.601594
447  4 -5.253676  9.506894 14.732226

