Generated by pymatgen.io.lammps.data.LammpsData

433  atoms

  4  atom types

0.000000 17.757900  xlo xhi
0.000000 12.953099  ylo yhi
0.000000 19.305410  zlo zhi
-8.560925 0.404358 -0.046590  xy xz yz

Masses

1  28.08550
2   1.00794
3  12.01070
4  15.99940

Atoms

1    1 -5.692639 12.340418  1.448871
2    1 -0.565292  3.151749  3.917840
3    1  2.885970  1.764067 18.953279
4    1 15.225184  1.375155 10.605041
5    1  1.475891  2.732730  6.166148
6    1  0.165226  1.855108 17.297068
7    1  2.343414  1.401705 13.236561
8    1  1.018386  3.886425  1.297710
9    1 -2.959511  7.944277  4.664573
10   1  0.121767  5.691906 18.601534
11   1 11.604895  6.949362  9.919312
12   1  0.066815  7.546021  4.911489
13   1  1.592652  3.539838 15.236988
14   1 -2.691570  6.041973 17.336451
15   1 -0.124463  5.200715 13.345637
16   1 -4.636779 11.498922  7.808266
17   1  9.890674  0.937353  1.045967
18   1  8.257484  2.547442 18.642848
19   1  9.998933  0.023694 14.657053
20   1  5.516599  2.025781 17.263862
21   1  8.264483  2.369562 13.396989
22   1  6.507537  4.569679  1.306783
23   1  2.204990  6.249101  3.055853
24   1  5.072015  6.492800 18.868528
25   1  4.603488  5.919906  4.904539
26   1  6.521393  4.240232 15.282355
27   1  2.717589  6.017586 16.921771
28   1  5.009577  6.275741 13.486566
29   1  3.519948  8.629272  1.536904
30   1  6.295276  0.250612  6.775427
31   1  2.863996 11.137764 19.251354
32   1 -0.722205  9.849199 12.269746
33   1  3.881727  8.593201 15.302819
34   1 -0.141424 10.641864 19.113128
35   1  2.226786 10.381539 13.195827
36   1 15.593322  2.130448 19.086100
37   1  4.354582 12.909464  9.063697
38   1  9.602408  2.855911 10.729754
39   1 11.834084  2.208613  7.307677
40   1  7.554691 12.552274 15.803022
41   1 14.534511  0.804567 13.504906
42   1  7.289409  6.370887  3.635209
43   1 10.067453  7.245559 18.523734
44   1 10.350033  4.594475  8.368702
45   1  6.037968  6.151924 10.635736
46   1  9.486791  5.802551  5.763051
47   1  7.508460  6.586316 17.045904
48   1 10.832573  6.972580 12.858175
49   1  5.249280 10.341218  3.335009
50   1  3.547477 10.329856 10.404650
51   1  5.272576 10.751378 17.263283
52   2 -3.547411 12.401064  2.404489
53   2 -4.646700 12.333133  3.769574
54   2  4.038871  0.941692  2.843880
55   2 -7.824188 12.924596  2.686155
56   2 10.322556 11.076043  2.692719
57   2  9.604653 11.890259  1.303694
58   2 -5.229616 10.584113 19.158495
59   2 -5.528829  9.806978  1.425511
60   2 -4.102765 10.477387  0.799051
61   2 15.959665  1.610234  5.245666
62   2 16.697203  0.763241  3.685017
63   2 15.187985  1.672082  3.663781
64   2 14.946625  3.320375  8.972575
65   2 -1.395752  3.533413  9.955607
66   2 14.753130  3.718051 10.683614
67   2  1.053271  1.133020  7.884715
68   2  0.134461  0.622520  6.443180
69   2 -0.430860  1.892525  7.482391
70   2  2.177465  4.926986  7.078328
71   2  2.384141  3.572306  8.170242
72   2  0.669225  4.343535  7.740504
73   2  3.345560  2.771592  4.608780
74   2  2.643302  1.146772  4.655500
75   2  3.720337  1.731488  6.099158
76   2 16.396021  0.342494  8.796703
77   2  8.098384 12.436345 10.381484
78   2 -0.202693  0.960008  9.907150
79   2  0.018438  0.724530 13.714177
80   2  0.396957  0.311945 12.062213
81   2  0.013061  2.029980 12.625545
82   2 -5.700682 12.084354 12.605274
83   2 -6.113923 12.137333 14.322297
84   2 -4.557369 12.715256 13.857423
85   2  3.939693  1.367652 11.459691
86   2  3.945073  2.855079 12.416274
87   2  2.701738  2.466400 11.056401
88   2 13.522915  6.125186  3.573431
89   2 -3.180225  7.204509  2.524568
90   2 -4.923772  7.837347  3.028247
91   2 -3.471157  6.026417  6.177345
92   2 -4.517204  7.490822  6.421944
93   2 -2.717009  7.510518  7.116939
94   2 -1.398468  7.611408  0.413908
95   2  0.214940  7.608934  0.848666
96   2 -1.107359  6.517070  1.619724
97   2 11.622752  9.331008 10.365460
98   2 10.045404  8.741762  9.671817
99   2 11.378557  9.068613  8.633572
100  2 -0.449696  7.839806  7.323121
101  2  1.098372  6.871878  7.031030
102  2 -0.471904  6.161666  6.921182
103  2  1.613865  9.200289  5.597797
104  2  0.188925  9.949220  5.121725
105  2  1.267759  9.421202  3.800656
106  2 -2.765397  6.907264 14.911112
107  2 -1.820948  7.925818 16.070595
108  2 -3.587003  7.929318 16.069244
109  2 14.614624  3.804357 17.054785
110  2 13.850583  4.604640 15.696263
111  2 13.089236  4.637753 17.218495
112  2 -3.821020  7.306390 10.707552
113  2 -4.040379  7.002437  8.913115
114  2 13.624947  5.617820 10.118930
115  2 -2.040925  4.302093 14.660914
116  2 -1.900771  3.590252 12.971498
117  2 -2.524116  5.235263 13.092543
118  2 -0.733551  7.484799 14.070555
119  2  0.998988  7.345582 13.843909
120  2  0.270614  6.678984 15.306294
121  2 -0.669027  5.647922 10.902923
122  2  0.641982  4.321476 11.030339
123  2  0.899034  6.051797 11.172427
124  2 -7.105765 11.374290  7.281035
125  2 -6.116984  9.889830  6.704962
126  2 -6.050140 11.433853  5.787183
127  2 -2.795455  9.891005  7.667530
128  2 -4.086789  9.179500  8.576235
129  2 -3.126223 10.385456  9.425866
130  2 -5.898498 12.213415  9.901552
131  2  3.236143  0.683884  8.818904
132  2 -4.188017 12.761109  9.778962
133  2 11.405850  2.762725  0.285334
134  2 11.890981  2.172858  1.942124
135  2 10.412444  3.184069  1.689416
136  2  9.194443  2.312143 16.417899
137  2 10.325882  3.079850 17.608464
138  2  9.097054  4.053735 16.881036
139  2 11.557768  1.516448 16.143956
140  2 12.231360 -0.001452 15.683715
141  2  2.421816 12.868896 16.910380
142  2  5.920499  0.291801 15.739700
143  2  4.160010  0.531820 15.955149
144  2 -3.410971 12.602130 17.204016
145  2  6.839386  0.443146 13.517069
146  2  6.609993  1.269125 11.923600
147  2  5.845340  1.987540 13.518806
148  2  5.012239  2.781767  1.143846
149  2  4.611050  3.747447  2.528429
150  2  6.020924  2.478657  2.649667
151  2  4.344358  4.024406  6.437582
152  2  5.923228  4.694243  6.585268
153  2  5.658713  3.662054  5.225395
154  2  3.599345  8.069574  5.345475
155  2  4.796720  7.687138  6.551484
156  2  3.191573  6.858279  6.708244
157  2  2.894944  6.551340 12.216463
158  2  2.687075  5.749074 13.698926
159  2  3.314239  4.957273 12.348126
160  2  7.389204  1.520824  4.937552
161  2  5.573648  1.148102  4.587544
162  2 -1.628580 12.801097  4.426730
163  2  0.185540 12.629767  7.254973
164  2 -0.753415 11.282288  6.597817
165  2 -0.952765 11.812105  8.408278
166  2  5.418536  2.407817  7.367717
167  2  7.180581  2.309651  7.682009
168  2  6.040030  1.675821  8.877013
169  2  9.919682  0.198040  3.494086
170  2 -0.124266 12.854041  2.401207
171  2  8.778173  1.560661  3.083460
172  2 -1.715849  7.588407 11.501005
173  2 -0.220779  8.215441 10.545580
174  2 -1.783773  8.901026 10.233025
175  2 -0.443518 12.137795 12.252371
176  2 -1.798494 11.830222 11.206211
177  2 -0.219945 11.636579 10.559866
178  2 -2.594359 10.647624 13.774217
179  2 -1.432874  9.602472 14.726746
180  2 -2.498871  8.832837 13.530196
181  2 -1.832282  9.118345 18.351529
182  2 -0.237600  8.759258 17.504215
183  2 -1.165065 10.068206 16.952080
184  2 -2.246826 11.857061 18.870845
185  2 -0.854349 12.767628 18.241488
186  2 -1.634882 12.596585  0.823376
187  2  0.512713 11.210862 15.959396
188  2 -0.685034 11.944177 14.815937
189  2 -0.343935 12.756087 16.207277
190  2  0.047310  9.476795  1.912008
191  2 -1.760836  9.338196  1.590380
192  2 -1.021374 10.769378  2.129387
193  2 16.812669  1.434756  1.312575
194  2 16.207129  0.043248  0.221240
195  2 15.235170  0.683013  1.558333
196  2 14.138159  3.200663  1.683625
197  2 13.472567  3.932533  0.387267
198  2 -2.675770  4.522221  0.897895
199  2 13.942428  0.307837 18.809840
200  2 14.374387  1.207011 17.158455
201  2 13.311650  1.833003 18.298632
202  2  6.090206 11.315203  8.148427
203  2 14.534072  0.029918  7.139913
204  2  4.765214 11.711962  6.911723
205  2  8.141315  0.982298  9.902903
206  2  9.900708  0.507403 10.400210
207  2  9.466966  1.465521  8.853075
208  2 -1.887213  5.206995  4.946818
209  2 14.894488  4.001918  4.108577
210  2 -1.819030  5.164372  3.178636
211  2 13.288838  3.474351  5.820967
212  2 13.525742  1.616847  5.672122
213  2 14.393054  2.619657  6.914425
214  2  9.534748  1.745724  6.426385
215  2 10.907167  0.703946  5.712278
216  2 10.605432  2.451607  5.109563
217  2  8.440408 10.429180 15.729275
218  2  9.643128 11.455050 14.930611
219  2  8.061334 11.166056 14.075960
220  2 12.004020  2.586345 10.251752
221  2 11.610723  1.969234 11.926110
222  2 11.859053  3.772000 11.623208
223  2  4.794695 11.675287 14.111289
224  2  6.005415 11.446242 12.729794
225  2  4.484576 12.376329 12.439055
226  2 13.533676  2.345854 15.169612
227  2 12.491094  1.675724 13.855492
228  2 13.621537  3.058099 13.578460
229  2  9.131167  7.758226  2.643297
230  2  8.277354  8.692679  3.871121
231  2  7.585950  8.414222  2.192901
232  2 -3.669373  7.867277 18.751151
233  2 -3.381778  6.679711  0.512945
234  2 13.327376  6.242061 18.961966
235  2 10.803775  7.831337 16.253417
236  2 11.926343  6.637986 16.997448
237  2 12.049809  8.369254 17.444754
238  2  9.524456  5.904514  1.299254
239  2 11.130267  6.840290  1.066045
240  2 10.767371  5.448788  0.079538
241  2  8.313300  9.143824  0.333404
242  2  9.718109  9.626935 18.384155
243  2  9.907505  9.381873  0.667581
244  2  6.750046  3.971109  9.629152
245  2  5.140343  3.852906 10.302332
246  2  6.423934  3.906467 11.510271
247  2  3.763232  5.799136  9.647106
248  2  5.047128  6.214892  8.374880
249  2  4.395799  7.439101  9.443627
250  2 -4.250950  9.964098  5.021916
251  2 -3.032519 10.378254  3.661464
252  2 -2.536817 10.306273  5.309181
253  2 10.797625  4.432915  4.250279
254  2 11.939651  5.306062  5.386209
255  2 11.151796  6.169748  4.109156
256  2 11.003647  7.541101  6.574650
257  2  9.303777  7.929865  7.147635
258  2  9.750270  8.315937  5.562082
259  2  7.824038  7.143608 14.717286
260  2  8.733743  8.197367 15.834297
261  2  7.086955  8.575104 15.662865
262  2  7.527711  8.033876  9.832438
263  2  7.627099  6.605145  8.760602
264  2  8.424131  6.680581 10.404071
265  2  9.754643  8.932286 13.918428
266  2  8.659326  8.133408 12.547937
267  2 10.100935  9.162847 12.148894
268  2 10.189596  5.901451 15.020767
269  2 10.651095  4.662726 13.740818
270  2  9.091288  5.456050 13.602012
271  2 13.150517  6.584857 13.463786
272  2 12.435585  7.820681 14.496432
273  2 -4.833460  8.078066 12.668596
274  2  6.746531 10.608349  5.305127
275  2  6.256388  8.923932  4.981761
276  2  5.163061  9.828566  5.844713
277  2  7.105968 11.827441  3.234235
278  2  6.456399 11.529333  1.486710
279  2  7.573849 10.410475  2.225528
280  2  4.292222 12.433388  4.575768
281  2  3.067157 11.224391  3.966683
282  2  3.851988 12.453790  2.830752
283  2  2.397820  8.227032 10.144027
284  2  2.549523  8.940370  8.475654
285  2  1.335493  9.537045  9.633399
286  2  5.583041  8.927268 10.952345
287  2  6.042709 10.593212 10.611604
288  2  5.493146  9.495883  9.245940
289  2  7.210439  9.406547 17.763100
290  2  5.816218  9.560402  0.008687
291  2  7.160690 10.899340 18.696903
292  3 -4.507582 12.764990  2.803339
293  3 -7.429879 12.022829  2.137881
294  3 -5.154463 10.687356  0.799437
295  3 16.197853  1.598001  4.142362
296  3 15.327554  3.092171  9.980125
297  3  0.431679  1.470328  7.022343
298  3  1.717903  4.062503  7.451116
299  3  2.949557  2.016179  5.301459
300  3 16.574999  0.410638  9.865836
301  3  0.551330  1.077820 12.830954
302  3 -5.611252 12.656935 13.602399
303  3  3.385730  2.131884 11.889236
304  3 -3.996588  7.217520  3.251803
305  3 -3.452289  7.209595  6.267501
306  3 -0.642369  6.933456  0.676462
307  3 11.123009  8.693361  9.600001
308  3  0.102965  7.075891  6.708630
309  3  0.883720  9.157883  4.813225
310  3 -2.666948  7.312692 15.932755
311  3 14.050989  4.621334 16.776208
312  3 13.408825  6.701103  9.951359
313  3 -1.831661  4.493083 13.562050
314  3  0.117610  6.807627 14.224998
315  3  0.196369  5.257599 11.458919
316  3 -6.153797 10.981117  6.817512
317  3 -3.556116 10.131824  8.463878
318  3 -5.081512 12.600449  9.205591
319  3 11.044356  2.390364  1.234774
320  3  9.287190  3.039429 17.235677
321  3 11.297181  0.414009 15.983142
322  3  5.092250  0.444653 16.435081
323  3  6.721738  1.425383 13.032503
324  3  5.448160  3.213633  1.998496
325  3  5.215411  4.458547  5.813052
326  3  3.989115  7.203640  5.997612
327  3  3.349091  5.875491 12.896014
328  3  6.576249  0.752797  5.006858
329  3 -0.803620 12.123641  7.328720
330  3  6.249335  1.727604  7.815988
331  3  9.263995  0.628386  2.670903
332  3 -1.142848  8.492543 11.067598
333  3 -0.800571 11.551293 11.495020
334  3 -1.908299  9.766874 13.695451
335  3 -0.935028  9.490538 17.901327
336  3 -1.196994 12.157673 19.097876
337  3  0.124681 12.103247 15.511317
338  3 -0.853636  9.961415  1.463929
339  3 16.004349  0.938266  0.828588
340  3 14.484243  3.604353  0.741714
341  3 14.229427  1.248297 18.299598
342  3  5.435262 12.121962  7.702665
343  3  9.241093  1.270306  9.931282
344  3 -1.899790  4.503703  4.062630
345  3 13.417800  2.515957  6.355534
346  3 10.563266  1.725846  6.021743
347  3  8.561223 11.287537 15.050111
348  3 11.475940  2.799827 11.158141
349  3  5.247606 12.118030 13.196213
350  3 13.437415  2.142312 14.062639
351  3  8.145120  7.973314  3.045235
352  3 -3.474259  6.804725 18.862350
353  3 11.325430  7.592738 17.167142
354  3 10.334162  6.297564  0.579355
355  3  9.648229  8.972700 19.178380
356  3  6.134742  4.275697 10.516236
357  3  4.707431  6.408206  9.426059
358  3 -3.225368  9.782412  4.573645
359  3 10.970709  5.343371  4.793919
360  3  9.942069  7.569972  6.312097
361  3  7.764159  7.756515 15.643559
362  3  7.537999  6.950446  9.792090
363  3  9.669542  8.438771 12.899682
364  3 10.137847  5.614627 13.911092
365  3 12.480976  7.461514 13.467261
366  3  5.893658  9.940430  5.060527
367  3  6.748055 11.115184  2.468776
368  3  4.022708 11.743661  3.706253
369  3  2.354283  9.177094  9.573166
370  3  5.335789  9.774328 10.284764
371  3  6.557111 10.034836 18.380680
372  4  2.882852  0.445439  0.275681
373  4  0.606261  3.344014  5.027708
374  4  1.588893  1.520493 18.010210
375  4  0.117447  3.167184  2.460088
376  4  2.052517  2.792299  0.805422
377  4  0.129091  4.387163  0.075098
378  4 -1.462609  7.596722  4.352212
379  4  0.422683  2.861978 16.105924
380  4  2.428709  2.348917 14.490833
381  4 -1.152938  5.616189 17.665029
382  4  0.925968  4.230759 14.054917
383  4  8.750332  1.441771  0.015830
384  4  6.851209  2.048100 18.160020
385  4  4.212947  2.344559 18.229133
386  4  9.465184  1.385480 14.002020
387  4  7.531217  3.915164  0.284948
388  4  1.884037  5.199336  1.840578
389  4  0.923399  6.468280  4.016877
390  4  5.388957  5.517568  0.616808
391  4  3.456450  5.620347  3.865522
392  4  5.661637  3.146354 16.082951
393  4  7.737576  3.483692 14.456277
394  4  2.542512  4.679123 15.963450
395  4  3.928107  5.828396 17.918895
396  4  1.391399  6.237950 17.821017
397  4  5.615483  5.041653 14.257238
398  4  2.546459  7.635856  2.359893
399  4  4.149281  7.818157  0.299234
400  4 -3.662445 12.438712  6.931800
401  4  2.749873  9.998596  1.085929
402  4  2.233701 12.655702  0.641326
403  4  3.030805  7.467852 16.154960
404  4  4.829011  7.671394 14.363418
405  4  1.416021 10.785578 18.657134
406  4  0.808865  9.701821 12.741377
407  4  2.885682  9.480313 14.409365
408  4  1.926824 11.946242 13.584638
409  4 -0.910464  2.492703 18.191680
410  4 13.852886  0.677533 10.162368
411  4  8.720434  3.072083 12.077850
412  4 11.936365  1.018191  8.394571
413  4 17.158042  0.423809 16.806517
414  4 15.225986  1.280276 12.187119
415  4 15.634400  0.593408 14.641995
416  4  7.329135  5.330811  2.430551
417  4  5.760938  6.535350  4.028267
418  4  9.503604  4.003061  9.592665
419  4 11.468407  3.572288  8.070433
420  4 11.047961  6.040169  8.798633
421  4  5.754275  6.654501 12.140207
422  4  8.132168  5.800248  4.892570
423  4  9.489673  4.904762  7.055355
424  4  7.157261  5.160023 16.466742
425  4  8.749707  6.461574 17.959629
426  4  6.228642  7.029688 17.909628
427  4 11.061272  6.522832 11.362199
428  4  4.711056  9.088995  2.495803
429  4  3.457244 11.762029  9.782051
430  4  3.231249 10.264679 11.970705
431  4  4.794971  9.586964 16.214613
432  4  6.206322 11.849971 16.602266
433  4  3.974530 11.276097 18.072952

