Generated by pymatgen.io.lammps.data.LammpsData

419  atoms

  4  atom types

0.000000 17.923200  xlo xhi
0.000000 14.261069  ylo yhi
0.000000 17.658647  zlo zhi
-10.905107 2.228012 0.307270  xy xz yz

Masses

1  28.08550
2   1.00794
3  12.01070
4  15.99940

Atoms

1    1  4.780913  0.876330  2.228521
2    1 -0.395321  2.695343  4.311006
3    1  2.328805  2.324555  0.991710
4    1  3.428522  0.537341  7.637542
5    1 -0.040967  2.301917  9.320764
6    1  2.225687  2.381179  5.630989
7    1  2.307208  2.549012 11.112763
8    1  1.039978  4.618824  2.414820
9    1 -0.929154  5.139078  0.022250
10   1  0.879315  4.443362  7.493270
11   1 -0.627507  6.516059  5.804574
12   1 14.617894  5.374738 14.622773
13   1 -4.305986 13.266801  0.549890
14   1 -4.475560 10.265592  7.796823
15   1  8.755710 12.759213  9.374623
16   1 -5.575581 12.742846  6.475249
17   1 -1.783189  7.397431 13.043560
18   1 10.596437 11.638078 14.230574
19   1  4.822525  3.150742  4.231542
20   1  7.824109  4.203034  0.344873
21   1 -0.168623 13.730194  6.486551
22   1  4.793094  2.872526  9.330300
23   1  7.082565  3.633735  6.172227
24   1  9.662625  0.422102 11.521738
25   1  5.415127  3.348340 15.833273
26   1  7.567292  2.504415 10.656111
27   1  5.886007  5.364158  2.491459
28   1  1.757321  7.141814  3.992090
29   1  5.717286  5.633043  8.002722
30   1  4.251681  7.561408  6.001998
31   1  4.443597  8.054129 12.419327
32   1  1.157862  8.987941  1.723661
33   1  3.138287  9.830141  7.842558
34   1  1.199261 11.149415  5.907347
35   1  1.045983 12.629769 10.901743
36   1 13.008150  3.236518  3.899383
37   1 16.321780  0.219321  7.686809
38   1 15.157590  2.700694  6.175759
39   1  5.320880 14.192335 13.711763
40   1  6.863839  7.597970  4.308533
41   1 13.825084  4.231913  8.495575
42   1  6.541975  8.003712  9.939876
43   1  9.022986  7.998425  6.390488
44   1  8.838833  8.076949 12.026069
45   1  8.039004  9.205849  1.985891
46   1  3.628314 11.697771  4.244609
47   1  7.579109 10.256566  7.982945
48   1  3.894498 12.439864  9.372151
49   1  6.051061 12.058058  6.050736
50   1  7.898951 10.741030 13.270120
51   1  6.378162 12.554978 11.307891
52   2 -7.932500 13.296925  2.404048
53   2 -7.577649 14.221678  3.932228
54   2 -6.335908 13.148921  3.389048
55   2 15.823436  1.225833  3.808264
56   2 17.257608  0.511449  3.199041
57   2 16.534613  1.940092  2.279378
58   2  0.064166  1.321355  0.880813
59   2  1.208590  0.395689  1.988364
60   2  1.426704  0.318033  0.205547
61   2 16.445301  3.504037 10.823691
62   2 17.033738  2.015862 11.567650
63   2 15.831168  1.898174 10.434671
64   2 -9.146849 14.461251 12.012472
65   2  2.115155  1.364053 13.243279
66   2  3.509368  0.602035 12.240621
67   2  1.200364  4.715667 11.537277
68   2  2.114214  4.278836 12.937961
69   2  0.620487  3.483266 12.687032
70   2 -3.373476  5.159440  0.422042
71   2 -2.679510  6.821900  0.457536
72   2 -2.611922  5.730568  1.871110
73   2  0.314162  3.957662 16.174438
74   2  0.465985  3.140983 17.554285
75   2  1.903627  3.440362 16.441967
76   2  1.319603  6.013104 15.379093
77   2  2.879045  6.598572 16.168787
78   2  1.405970  7.581341 16.416891
79   2  2.337577  6.364938  7.856156
80   2  2.631802  5.090419  9.076898
81   2  1.188285  6.140417  9.221875
82   2 -2.282966  5.475524  4.400358
83   2 -2.857563  7.223163  4.716801
84   2 -3.098005  5.941287  5.916353
85   2 12.765470  5.388127 12.941670
86   2 12.586779  4.032746 14.129567
87   2 13.782564  3.876058 12.795986
88   2 13.257459  6.076739 16.438082
89   2 13.483106  7.503914 15.352075
90   2 14.758841  7.043244 16.587474
91   2 16.034534  3.478512 14.905311
92   2 14.616180  3.119764 15.867707
93   2 15.886034  4.348342 16.391463
94   2 -6.085052 11.538214  1.205379
95   2 -4.497326 11.359298  2.085839
96   2 -4.713258 10.967114  0.225148
97   2 -2.518405 13.349389  2.050699
98   2 -1.807533 13.802533  0.415508
99   2 -2.186775 12.131997  0.776451
100  2 12.088865  8.313166  8.439421
101  2 11.106673  9.894323  8.277314
102  2 -5.623064  9.584962  9.676586
103  2  0.294567  8.152579  7.258764
104  2 -1.026466  7.071385  8.132160
105  2 -1.693578  8.313604  6.948325
106  2 -4.226760  8.268282  6.425452
107  2 -2.984146  9.555095  5.894810
108  2 -4.714655  9.584760  5.403193
109  2 -2.270116 10.716499  8.770520
110  2 -2.978613  9.195054  9.421948
111  2 -3.505083 10.768461 10.011040
112  2 -6.806758 12.194463  9.947646
113  2  9.956356 11.342438 10.886203
114  2 -7.639918 13.026453 11.381881
115  2 -7.378098 11.043462  6.243745
116  2 -6.512519 11.283455  4.685369
117  2 -7.681026 12.442218  5.294769
118  2  5.887106  0.110092  4.991040
119  2 -4.056872 12.893686  4.300940
120  2 -3.530541 13.821014  5.837772
121  2 -3.015370  9.268341 11.986337
122  2 -4.046274  8.463489 13.300140
123  2 -3.691277  7.600601 11.655590
124  2 -0.961390  7.719922 10.743345
125  2 -0.789715  6.042702 11.244674
126  2  0.311707  7.396839 11.927710
127  2 -1.220411  8.374118 15.171427
128  2 -0.758365  9.495866 13.760148
129  2  0.189837  8.114154 14.164178
130  2 11.356749 10.220569 16.175321
131  2 11.514462  9.374009 14.551255
132  2  9.836080  9.644136 15.380329
133  2 -3.029418 13.125926 16.000324
134  2 -1.288753 12.860281 15.953352
135  2  9.140126  0.316904 15.901082
136  2 -5.627496 12.670688 12.859910
137  2 -5.998658 11.142559 12.119130
138  2 -4.884766 11.321524 13.569081
139  2 -6.263884 12.954083 15.902142
140  2  9.818770 12.966417 16.176557
141  2 -7.205603 13.978746 14.779582
142  2  9.606195  2.890898 16.172319
143  2  6.494445  2.136878  0.122904
144  2 10.509861  2.115811 17.450982
145  2 10.025429  5.033340  0.805411
146  2 10.141700  3.319348  0.332689
147  2  9.465378  3.861959  1.970528
148  2 12.530718  0.677056  7.602224
149  2 10.905606  1.325088  8.020734
150  2 11.756767  1.831553  6.360115
151  2 -1.127974 12.639189  8.312279
152  2 -2.272030 12.557984  7.161464
153  2 -2.029540 14.021475  8.244469
154  2 -1.732123 13.125045  4.492007
155  2 -0.163861 13.707286  3.940704
156  2  9.573850  0.649202  4.665591
157  2  8.553816  2.738736  7.714533
158  2  8.240197  1.599571  6.362764
159  2  7.088606  1.605031  7.651845
160  2 11.418114  0.964804 13.148452
161  2  9.870150  1.631064 13.639186
162  2 10.855872  2.571303 12.377476
163  2 -3.263595 13.317939 12.143499
164  2 -1.972238 13.583700 13.500213
165  2 -1.652990 12.395619 12.328738
166  2  3.181517  3.407850 14.532537
167  2  4.646736  3.783795 13.468427
168  2  3.996312  4.980475 14.470202
169  2  7.150392  1.793517 15.304043
170  2  5.571795  1.158544 14.660739
171  2  5.904475  1.083799 16.438258
172  2 10.706205  6.732010 16.813681
173  2  9.086558  6.265413 16.438082
174  2 10.378277  5.282660 15.723789
175  2  7.390805  4.472079 16.782072
176  2  6.133951  5.617963 16.241541
177  2  7.187537  4.819452 15.026626
178  2  6.522880  2.229078 12.896110
179  2  6.353448  3.943844 12.200360
180  2  7.807194  3.403482 13.002945
181  2  8.108917  4.213735  9.139233
182  2  9.567172  3.937598 10.284220
183  2  7.992635  4.790116 10.840997
184  2  5.314825  6.827779  0.631473
185  2  4.539241  7.250436  2.186317
186  2  3.891359  5.882557  1.156112
187  2  3.663919  5.738994 11.862373
188  2  2.503927  7.027275 11.276812
189  2  2.502331  6.444918 12.985286
190  2  6.459070  7.968876 14.027323
191  2  5.726241  6.391920 13.635831
192  2  4.847401  7.720243 14.630189
193  2  3.639021  9.874554 13.951921
194  2  2.347284  9.440456 12.944318
195  2  3.753714 10.452525 12.261812
196  2  1.891659  7.227376  0.082466
197  2  3.220224  8.425616  0.378955
198  2  4.111361  9.421493 17.050660
199  2 -1.096842  9.506835  2.326350
200  2 -1.026131  7.709626  2.111621
201  2 -1.062734  8.913847  0.653723
202  2  2.914863  9.353090 10.226476
203  2  3.299485  7.863628  9.224524
204  2  1.504497  8.595027  9.196977
205  2 -0.397076  9.471699  5.093460
206  2 -0.584199 11.033388  4.279750
207  2 -1.112609 10.814045  6.000408
208  2  0.221924 10.821699  9.546441
209  2 -0.902203 11.085688 10.948891
210  2  0.582393 10.146992 11.201057
211  2  0.465698 12.489607 13.296255
212  2  1.937049 13.476442 13.073226
213  2  2.063226 11.721999 13.111546
214  2 11.366001  2.212792  2.338358
215  2 10.867487  2.328188  4.093628
216  2 12.063273  1.066956  3.488113
217  2 15.122561  3.608293  2.677581
218  2 13.630751  3.379748  1.443418
219  2 14.259544  1.959798  2.379150
220  2 12.739331  5.677063  4.647933
221  2 11.266046  4.737231  4.744702
222  2 11.854308  5.274462  3.106509
223  2  8.754134  5.068071  4.751942
224  2  8.286303  3.676583  3.963130
225  2  9.364989  3.531841  5.406018
226  2 14.422219  0.842224 12.373591
227  2 15.361077  2.159603 13.222619
228  2 14.181760  1.294473 14.186604
229  2  7.496066 14.276029 14.882708
230  2 17.135581  0.875171 15.848813
231  2 17.962801  1.658394 14.562380
232  2  4.287303 12.077292 13.884818
233  2  3.495520 13.256258 15.016031
234  2  5.175676 12.582056 15.519479
235  2 13.859869  1.978020  9.106035
236  2 12.322455  2.913963  9.990556
237  2 13.930735  3.010476 10.627857
238  2 -3.216330  6.498460  8.784471
239  2 -2.327576  5.339218  9.655572
240  2 13.851054  5.834102 10.214291
241  2 10.586353  8.898374  4.632746
242  2 10.855423  7.189002  5.089399
243  2 11.421747  8.534125  6.082168
244  2 11.489320  4.912406  8.345477
245  2 11.898025  3.914790  6.965453
246  2 12.615605  5.693829  7.029378
247  2 10.485887  6.976639  8.014377
248  2  9.504591  5.811400  7.303263
249  2  8.937270  6.842246  8.634196
250  2 11.172543  8.821282 11.684550
251  2 10.082670  8.986991 10.217293
252  2 10.665445  7.407257 10.764358
253  2  8.478540  6.469909 13.823189
254  2 10.252261  6.918204 13.712469
255  2  9.626396  5.763964 12.551590
256  2  8.860442  6.879216  1.317335
257  2 10.006766  7.735106  2.354781
258  2  9.590098  8.188100  0.604456
259  2  9.199128  8.914048 17.441976
260  2  6.574548 10.355857  0.248104
261  2  5.762987  9.025840  1.090598
262  2  8.177618 11.573355  1.921791
263  2  9.625598 10.853503  1.219683
264  2  9.382285 10.693254  3.017156
265  2  0.595476 11.437434  2.380033
266  2  0.606404 10.965626  0.606751
267  2  2.068155 11.448979  1.428938
268  2  4.314833 10.765911  2.062177
269  2  4.189016  9.499448  3.409885
270  2  5.528442 10.492835  3.366621
271  2  3.178145 14.084703  4.018402
272  2  2.457940 13.172503  2.662571
273  2  4.087604 13.535100  2.642617
274  2  6.615948 12.538656  3.690304
275  2  7.767024 11.306050  4.500483
276  2  7.998160 13.056583  4.688194
277  2  7.498450  9.936553 15.539786
278  2  5.991026 10.416590 14.524061
279  2  6.970069 11.708432 15.323291
280  3 -7.156197 13.829135  3.042585
281  3 16.763611  1.471563  3.276209
282  3  1.098419  0.977601  1.065699
283  3 16.660649  2.470444 10.687190
284  3  2.447561  1.011950 12.251746
285  3  1.489498  3.889175 12.181112
286  3 -2.529262  5.784322  0.764090
287  3  1.017838  3.813546 16.923871
288  3  1.758613  6.528879 16.245073
289  3  1.863173  5.637621  8.511645
290  3 -2.385334  6.277599  5.148025
291  3 13.295402  4.617975 13.487675
292  3 13.987521  6.644943 15.801311
293  3 15.289270  3.938969 15.550911
294  3 -4.981727 11.559164  1.114437
295  3 -2.511880 13.116249  0.978642
296  3 -5.860403  9.444308  8.600644
297  3 -0.784205  7.674985  7.218325
298  3 -3.999835  9.324463  6.229088
299  3 -3.120511 10.201687  9.148239
300  3 -7.765950 12.302443 10.489943
301  3 -6.901629 11.784249  5.616509
302  3 -4.437130 13.456167  5.236672
303  3 -3.297433  8.318929 12.483251
304  3 -0.697664  7.081152 11.586545
305  3 -0.798816  8.482616 14.202674
306  3 10.844190 10.037450 15.183258
307  3 -2.107817 13.604092 16.311293
308  3 -5.852654 11.658777 13.125319
309  3 -7.242832 13.030220 15.417588
310  3  9.642782  2.842484 17.266625
311  3  9.542937  4.040455  0.918426
312  3 11.562638  1.031768  7.112727
313  3 -1.583771 13.211778  7.607875
314  3 -0.911065 13.873975  4.726160
315  3  7.789872  2.204401  7.125971
316  3 10.529377  1.540692 12.764730
317  3 -2.162540 13.352663 12.434337
318  3  4.194845  3.860986 14.454133
319  3  6.058194  1.662560 15.482043
320  3 10.077284  5.847055 16.613785
321  3  6.663642  4.706437 15.973483
322  3  7.031628  3.013751 12.332270
323  3  8.378302  4.059416 10.162905
324  3  4.764213  6.443289  1.499572
325  3  3.205019  6.696465 12.107298
326  3  5.545959  7.433202 13.771626
327  3  3.471880  9.569866 12.923305
328  3  2.155065  8.382338  0.211197
329  3 -0.743868  8.695058  1.709534
330  3  2.629375  8.796212  9.284917
331  3 -0.399488 10.542532  5.255567
332  3  0.160552 10.994042 10.673240
333  3  1.397700 12.579964 12.752016
334  3 11.726090  2.104597  3.390107
335  3 14.178012  3.088842  2.428064
336  3 12.218677  4.922739  4.087447
337  3  8.543423  4.055963  4.932237
338  3 14.918567  1.185169 13.346935
339  3 17.544657  0.701688 14.853218
340  3  4.479638 12.863264 14.633191
341  3 13.402061  2.859933  9.647449
342  3 14.580521  5.606160  9.424597
343  3 10.538075  8.198315  5.461466
344  3 12.305433  4.751222  7.589510
345  3  9.491494  6.797161  7.674095
346  3 10.314727  8.381389 11.089807
347  3  9.330510  6.676182 13.129911
348  3  9.258127  7.857927  1.545308
349  3  6.738671  9.337560  0.630061
350  3  8.931279 10.768785  2.022445
351  3  1.108507 10.866674  1.591397
352  3  4.475749 10.509963  3.129819
353  3  3.318407 13.284898  3.327419
354  3  7.215142 12.214154  4.563701
355  3  6.988958 10.662201 14.853924
356  4  3.781486  1.755662  1.310272
357  4  0.861169  2.102903  4.989274
358  4  2.727935  1.065714  6.301665
359  4  1.363759  2.146377  9.946410
360  4 -0.032860  3.959806  3.438492
361  4  2.027012  3.448207  2.058469
362  4  0.302545  5.142518  1.064110
363  4 -0.037560  3.588953  8.434123
364  4  1.990672  3.537961  6.700221
365  4  0.006388  5.189531  6.404968
366  4  5.898284  0.215248  1.322280
367  4 -8.607340 14.042338  8.533718
368  4 -4.755066 11.761337  7.430582
369  4 -6.221387 13.853109  7.321628
370  4 -2.139419  6.034909 13.763680
371  4  5.344664  1.943101  3.288217
372  4  3.315048  2.871478  4.516552
373  4  4.093563  1.917898  8.265307
374  4  3.814938  2.997253 10.589185
375  4  5.691790  3.224120  5.571833
376  4  4.594271  3.250476 17.200052
377  4  6.223126  2.290256  9.765232
378  4  8.567114  1.264316 10.650460
379  4  4.989432  4.477515  3.473103
380  4  6.766404  4.392029  1.527120
381  4  1.851507  5.842491  3.057948
382  4  0.299585  7.079927  4.631687
383  4  4.964762  4.398945  8.825439
384  4  6.837109  4.842188  7.137625
385  4  2.955877  7.086442  5.153676
386  4  4.667032  6.381660  7.046860
387  4  1.840592  8.464999  3.060244
388  4  4.015233  8.980834  6.798226
389  4  1.752231 10.265461  7.125441
390  4  0.940052 12.615507  6.394020
391  4 -0.030625 13.836306 10.699728
392  4 17.464195  1.026789  8.482155
393  4 -1.458263  3.128659  5.404782
394  4 13.887872  2.783762  5.163389
395  4 15.391822  1.238612  6.796460
396  4  6.832670  6.263600  3.409178
397  4  5.390903  7.777919  4.888973
398  4 14.838835  3.735989  7.368954
399  4  6.387937  6.723199  9.004851
400  4  5.249440  8.178765 10.968316
401  4  7.893157  7.402571  5.528393
402  4  7.763167  7.621030 10.985621
403  4  7.304054  8.816798  3.395052
404  4  2.197475 11.144094  4.683603
405  4  6.926808  9.373904  9.103209
406  4  8.559047  9.345634  7.142570
407  4  8.548355 11.494132  8.441363
408  4  3.888527 11.182558  8.344770
409  4  4.365524 13.757271  8.698297
410  4  2.385385 12.774000  9.994971
411  4  4.530013 11.899108  5.505083
412  4  6.438886 10.851068  7.038031
413  4  6.132899 13.413756  6.807055
414  4  8.368684  9.262094 12.938668
415  4  9.193452 11.624993 13.470369
416  4  7.446194 13.092416 10.189746
417  4  5.002012 12.155152 10.524201
418  4  7.008336 11.306037 12.080810
419  4  5.975351 13.713622 12.320262

